 
    Atoms
    1 O      -0.773406025584       1.513557129833       2.036224262358     R=1.72
    2 H      -1.612995991869       1.064403768511       1.764209887499     R=1.30
    3 H      -0.059425767853       0.870841646195       1.796448398965     R=1.30
    4 H      -0.667317780448       2.255900186223       1.389673249552     R=1.30
    5 O      -1.465094678937       0.467814964799       1.026777178082     R=1.72
    6 H      -2.357050543513       0.086691157197       0.809377981653     R=1.30
    7 H      -1.105155918617       0.372851704322       0.141889576192     R=1.30
    End
    GUIBonds
        1 2 1 1.0
        2 3 1 1.0
        3 4 1 1.0
        4 5 2 1.0
        5 6 5 1.0
        6 7 5 1.0
    End
    NoPrint LOGFILE
    XC
        GGA PBE
    End
    Relativistic Scalar ZORA
    Geometry
    End
    Charge +1.0
    SOLVATION
        Surf Delley
        Solv name=Water cav0=0.0 cav1=0.0067639
        Charged method=CONJ
        C-Mat POT
        SCF VAR ALL
        CSMRSP
    END
    AnalyticalFreq
    End
    NumericalQuality Good
    ScanFreq -1000 0
    QTAIM
        Enabled Yes
    End

Fragments
H t21.H
O t21.O
End

 *******************************************************************************
 *                                                                             *
 *  -------------------------------------                                      *
 *   Amsterdam Density Functional  (ADF)         2019                          *
 *  -------------------------------------                                      *
 *                                               r74351 2019-04-25             *
 *                                                                             *
 *                                                                             *
 *                              =================                              *
 *                              |               |                              *
 *                              |     A D F     |                              *
 *                              |               |                              *
 *                              =================                              *
 *                                                                             *
 *                                                                             *
 *   Online information and documentation:  https://www.scm.com/support/       *
 *   E-mail:  support@scm.com   info@scm.com                                   *
 *                                                                             *
 *   Scientific publications using ADF results must be properly referenced     *
 *   See the User Manuals (or the web site) for recommended citations          *
 *   The terms and conditions of the End User License Agreement apply to       *
 *   the use of ADF, https://www.scm.com/license-terms/                        *
 *                                                                             *
 **********************  x86_64_linux_intel / intelmpi  ************************
 



 ===========================
 A T T A C H E D   F I L E S
 ===========================
  



 ===============================
 M O D E L   P A R A M E T E R S
 ===============================
  
 DENSITY FUNCTIONAL POTENTIAL (scf)
    LDA:                               PW92                                    == Not Default ==
    Gradient Corrections:              PBEc PBEx                               == Not Default ==

 SPIN  (restricted / unrestr.)
    Molecule:                          Restricted                               
    Fragments:                         Restricted                               

 OTHER ASPECTS
    Relativistic Corrections:          scalar (ZORA,MAPA)                      == Not Default ==

    Nuclear Charge Density Model:      Point Charge Nuclei                      
    Core Treatment:                    Frozen Orbital(s)                        

    Hyperfine or Zeeman Interaction:   ---                                      

 SOLVATION
-------------------------------------------

  The Delley construction of COSMO surface surface is calculated

       Division Level for Surface Triangles (NDIV)                  3
       Final Division Level for Triangles (NFDIV)                   1
       Radius of the Solvent (RSOL)                           1.93000 angstr
  Dielectric Constant (EPSL)                                 78.39000

       COSMO equation is solved iteratively-               conjugate-gradient

       Maximun of Iterations for Charges (NCIX)                  1000
       Criterion for Charge convergence (CCNV)                1.0E-08

  COSMO charges included variationally in SCF

       COSMO included at every SCF cycle

  Geometry-dependent empirical factor                         0.00000

  C-Matrix calculated in cspmtx

  In cspmtx, C-Matrix calculated using fitted potential

-------------------------------------------



 Fragment File(s)
 ----------------
 O:
         file : t21.O
         jobid: ADF 2019  RunTime: Nov20-2019 12:37:34  Nodes: 1  Procs: 1
         title: Oxygen (TZP, 1s frozen)
 H:
         file : t21.H
         jobid: ADF 2019  RunTime: Nov20-2019 12:37:33  Nodes: 1  Procs: 1
         title: Hydrogen (TZP)



                                   *********************************************
                                   *  R U N   T Y P E : GEOMETRY OPTIMIZATION  *
                                   *********************************************
  



 ===============
 G E O M E T R Y  ***  3D  Molecule  ***
 ===============
  

 ATOMS
 =====                            X Y Z                    CHARGE                     RADIUS
                                (Angstrom)             Nucl     +Core       At.Mass (Angstrom)
                       --------------------------    ----------------       ------- ----------
    1  O              -0.7734    1.5136    2.0362      8.00      6.00       15.9949    1.7200
    2  H              -1.6130    1.0644    1.7642      1.00      1.00        1.0078    1.3000
    3  H              -0.0594    0.8708    1.7964      1.00      1.00        1.0078    1.3000
    4  H              -0.6673    2.2559    1.3897      1.00      1.00        1.0078    1.3000
    5  O              -1.4651    0.4678    1.0268      8.00      6.00       15.9949    1.7200
    6  H              -2.3571    0.0867    0.8094      1.00      1.00        1.0078    1.3000
    7  H              -1.1052    0.3729    0.1419      1.00      1.00        1.0078    1.3000


 FRAGMENTS
 =========                                     Atoms in this Fragment     Cart. coord.s (Angstrom)
                                               -------------------------------------------------------
    1  O                                                 1  O           -0.7734    1.5136    2.0362
    2  O                                                 5  O           -1.4651    0.4678    1.0268
    3  H                                                 2  H           -1.6130    1.0644    1.7642
    4  H                                                 3  H           -0.0594    0.8708    1.7964
    5  H                                                 4  H           -0.6673    2.2559    1.3897
    6  H                                                 6  H           -2.3571    0.0867    0.8094
    7  H                                                 7  H           -1.1052    0.3729    0.1419


 Interatomic Distance Matrix (Angstrom)
 --------------------------------------

   1)     0.000
   2)     0.990   0.000
   3)     0.990   1.566   0.000
   4)     0.990   1.567   1.566   0.000
   5)     1.610   0.960   1.652   1.991   0.000
   6)     2.459   1.556   2.621   2.810   0.994   0.000
   7)     2.236   1.835   2.020   2.301   0.960   1.447   0.000

 Min. Distance =    0.9600
 Max. Distance =    2.8102



 =====================================
 S Y M M E T R Y ,   E L E C T R O N S
 =====================================
  
 Symmetry: NOSYM

 Irreducible Representations, including subspecies
 -------------------------------------------------
 A


 Configuration of Valence Electrons
 ==================================
 ( determined in the SCF procedure )

 Total:   16

 Net Charge: 1 (Nuclei minus Electrons)

 Aufbau principle for MO occupations will be applied through SCF cycle no.     150
 Thereafter, the program will assign electrons to MOs that are spatially
 similar to the occupied MOs in a "reference" cycle ("KeepOrbitals").
 The reference cycle is always the PREVIOUS cycle: it will evolve with
 the SCF procedure.
1
 ***************************************************************************************************



                                      ****************************************
                                      *  B U I L D : (Fragments, Functions)  *
                                      ****************************************
  

 Total nr. of (C)SFOs (summation over all irreps) :    64

 Specify PRINT SFO in the input file to get a full list

 Nr. of SFOs for ir.rep.           A :    64



 ================================
 (Slater-type)  F U N C T I O N S  ***  (Basis and Fit)  ***
 ================================
  

 Atom Type    1  (O)
 ==============

 Valence Basis Sets:   8
 -----------------------
   1 S    7.360000
   2 S    1.720000
   2 S    2.880000
   2 S    7.580000
   2 P    1.120000
   2 P    2.080000
   2 P    4.080000
   3 D    2.000000

 Frozen Core Shells
 ------------------
    S:  1

 Atom Type    2  (H)
 ==============

 Valence Basis Sets:   4
 -----------------------
   1 S    0.690000
   1 S    0.920000
   1 S    1.580000
   2 P    1.250000


 BAS: List of all Elementary Cartesian Basis Functions
 =====================================================

 The numbering in the list below (to the right of the function characteristics) is referred
 to in print-outs of MO eigenvectors and Mulliken populations in the BAS representation
 (as contrasted to the SFO representation).

 Notes:
 1. The functions are characterized by a polynomial prefactor (powers of x,y,z and r) and
    an exponential decay factor alpha.
 2. Since the basis sets are specific for an atom TYPE, the individual functions occur on
    all atoms of that type.
 3. The word 'Core' in the left margin signals that it is a Core Function (CF) : not a
    degree of freedom in the valence set, but only used to ensure orthogonalization of
    the other valence basis functions on the frozen Core Orbitals.


 (power of) X  Y  Z  R     Alpha  on Atom
            ==========     =====     ==========

 O                                    1    2
                                  ---------------------------------------------------------------------------
    Core    0  0  0  0     7.360      1   20
            0  0  0  1     1.720      2   21
            0  0  0  1     2.880      3   22
            0  0  0  1     7.580      4   23
            1  0  0  0     1.120      5   24
            0  1  0  0     1.120      6   25
            0  0  1  0     1.120      7   26
            1  0  0  0     2.080      8   27
            0  1  0  0     2.080      9   28
            0  0  1  0     2.080     10   29
            1  0  0  0     4.080     11   30
            0  1  0  0     4.080     12   31
            0  0  1  0     4.080     13   32
            2  0  0  0     2.000     14   33
            1  1  0  0     2.000     15   34
            1  0  1  0     2.000     16   35
            0  2  0  0     2.000     17   36
            0  1  1  0     2.000     18   37
            0  0  2  0     2.000     19   38

 H                                    3    4    5    6    7
                                  ---------------------------------------------------------------------------
            0  0  0  0     0.690     39   45   51   57   63
            0  0  0  0     0.920     40   46   52   58   64
            0  0  0  0     1.580     41   47   53   59   65
            1  0  0  0     1.250     42   48   54   60   66
            0  1  0  0     1.250     43   49   55   61   67
            0  0  1  0     1.250     44   50   56   62   68

 Total number of charge fitting functions (nprimf)       414
 Total number of Cartesian basis functions (naos)         68
 Total number of Cartesian core functions  (ncos)          2



 Coordinates (Cartesian)
 =======================

     Atom                    bohr                                 angstrom                 Geometric Variables
                   X           Y           Z              X           Y           Z       (0:frozen, *:LT par.)
 --------------------------------------------------------------------------------------------------------------
     1 O      -1.461526    2.860208    3.847906      -0.773406    1.513557    2.036224      1       2       3
     2 H      -3.048121    2.011432    3.333874      -1.612996    1.064404    1.764210      4       5       6
     3 H      -0.112298    1.645652    3.394795      -0.059426    0.870842    1.796448      7       8       9
     4 H      -1.261048    4.263034    2.626102      -0.667318    2.255900    1.389673     10      11      12
     5 O      -2.768628    0.884042    1.940328      -1.465095    0.467815    1.026777     13      14      15
     6 H      -4.454180    0.163823    1.529503      -2.357051    0.086691    0.809378     16      17      18
     7 H      -2.088442    0.704588    0.268132      -1.105156    0.372852    0.141890     19      20      21
 --------------------------------------------------------------------------------------------------------------
1
 ***************************************************************************************************



                                              ***********************
                                              *  T E C H N I C A L  *
                                              ***********************
  



 =============================================================
 P A R A L L E L I Z A T I O N  and  V E C T O R I Z A T I O N
 =============================================================
  
 Nr of parallel processes:                               12
 Maximum vector length in NumInt loops:                 128



 ===============================
 G E O M E T R Y   U P D A T E S
 ===============================
  
 Optimization coordinates:                       Delocalized
 Optimization code branch:                       NEW
 Hessian update method:                          BFGS (Broyden-Fletcher-Goldfarb-Shanno)

 Iterative Geometry Improvements:
    Max. nr. of iterations:                         42
    Convergence criteria:
         Change in energy (hartree):                 0.0010000000
         Gradients (au/Angstrom):                    0.0010000000
         Cart/bondlength changes (Angstrom):         0.0100000000
    Max. step to take:
         Trust Radius:                               0.2000000000

 GDIIS (Geometry Direct Inversion in Iteration Space):
    First geometry cycle:                            0
    Max. number expansion vectors:                   5



 =====================
 S C F   U P D A T E S
 =====================
  
 Max. nr. of cycles:                               300
 Convergence criterion:                              0.0000010000
   secondary criterion:                              0.0010000000

 Mix parameter (when DIIS does not apply):           0.2000000000
 Mixed ADIIS+SDIIS will be used                  
    Max number of expansion vectors:                10
    Pure ADIIS when Max([F,P]) is above              0.1000000000
    Pure SDIIS when Max([F,P]) is below              0.0010000000



 =================
 P R E C I S I O N  ***  (General: NumInt, NeglectFunctionTails, ...)  ***
 =================
  

 NumInt:           Target precision:                 6.0000000000
 -------           Initial precision:                6.0000000000
                   Min. precision (optimization):    6.0000000000

 Neglect Functions:          Basis functions:        0.1000000000E-07
 ------------------          Fit functions:          0.1000000000E-07



 ===========================
 L I N E A R   S C A L I N G
 ===========================
  

 Cut-off radii density fit:                        0.1000000000E-09
 Overlap cut-off criterion AO matrix elements:     0.1000000000E-07
 Cut-offs for Coulomb potential and fitted density:0.1000000000E-09
 Cut-off criterion for Coulomb multipole terms:    0.1000000000E-09
 Progressive Convergence parameter:                 0.000000000    
1
 ***************************************************************************************************



                                            ***************************
                                            *  C O M P U T A T I O N  *
                                            ***************************
  

 Number of elements of the density matrix on this node (used, total):       211      2346



 ===========================================
 Numerical Integration : Fuzzy Cells (Becke)
 ===========================================
  
 Becke grid quality: GOOD           
  
 Lebedev angular grid order:             min:  11 max:  31
 Nr. of radial points:                   min:  54 max:  58

 Total nr. of points:      83533
 Nr. of blocks:              653
 Block length:               128
 Nr. of dummy points:         51


 Test of Precision of the Numerical Integration Grid
 ===================================================

 Integral of the Total Core Density:                   3.99999924779348
 Relative Error:                                      -1.881E-07


 -------------------------------------------
  COSMO surface
  Area             =          234.623
  Volume           =          305.593
  Number of Points =          665
 -------------------------------------------



 ========================
 Density Fitting (zlmFit)
 ========================
  
 ZlmFit Fit Quality: GOOD           
  
 Max L-expansion:                        min:   7 max:   8
 Nr. of radial interpolation points:     min:  72 max:  84



 =====
 S C F  ***  ScaSCF  ***
 =====
  
 Initial density matrix is calculated as sum of fragments

 CYCLE    1
 SCF Error: norm([F,P])=      1.994388104786, max([F,P])=      0.305772638027
 orbitals (Q,E):
 ---------------
 A :1...18           ( 2.00    -1.2939)  ( 2.00    -1.1021)  ( 2.00    -0.7994)  ( 2.00    -0.6968)
                     ( 2.00    -0.6553)  ( 2.00    -0.5701)  ( 2.00    -0.5004)  ( 2.00    -0.3912)
                     ( 0.00    -0.1016)  ( 0.00    -0.0454)  ( 0.00    -0.0199)  ( 0.00    -0.0187)
                     ( 0.00     0.0368)  ( 0.00     0.1229)  ( 0.00     0.1436)  ( 0.00     0.1547)
                     ( 0.00     0.1825)  ( 0.00     0.2522)

 CYCLE    2
   MIX coefficients:  0.8000  0.2000
 SCF Error: norm([F,P])=      1.023838047486, max([F,P])=      0.202604192112
 orbitals (Q,E):
 ---------------
 A :1...9            ( 2.00    -1.2241)  ( 2.00    -1.0371)  ( 2.00    -0.7380)  ( 2.00    -0.6390)
                     ( 2.00    -0.5961)  ( 2.00    -0.5032)  ( 2.00    -0.4318)  ( 2.00    -0.3149)
                     ( 0.00    -0.0820)

 CYCLE    3
  SDIIS (wt  0.000): -0.8371  1.8371
 A-DIIS (wt  1.000):  0.0000  1.0000
  DIIS coefficients:  0.0000  1.0000
 SCF Error: norm([F,P])=      0.470584169055, max([F,P])=      0.096679858885
 orbitals (Q,E):
 ---------------
 A :1...9            ( 2.00    -1.0617)  ( 2.00    -0.8859)  ( 2.00    -0.5961)  ( 2.00    -0.5106)
                     ( 2.00    -0.4628)  ( 2.00    -0.3523)  ( 2.00    -0.2745)  ( 2.00    -0.1450)
                     ( 0.00    -0.0279)

 CYCLE    4
  SDIIS (wt  0.000): -0.3516  1.1526  0.1991
 A-DIIS (wt  1.000):  0.0000  0.7561  0.2439
  DIIS coefficients:  0.0000  0.7561  0.2439
 SCF Error: norm([F,P])=      0.916796615237, max([F,P])=      0.196240604204
 orbitals (Q,E):
 ---------------
 A :1...9            ( 2.00    -1.1334)  ( 2.00    -0.9496)  ( 2.00    -0.6561)  ( 2.00    -0.5664)
                     ( 2.00    -0.5179)  ( 2.00    -0.4184)  ( 2.00    -0.3382)  ( 2.00    -0.2167)
                     ( 0.00    -0.0419)

 CYCLE    5
  SDIIS (wt  0.569):  0.0358  0.2010 -0.0602  0.8234
 A-DIIS (wt  0.431):  0.0000  0.2275  0.0000  0.7725
  DIIS coefficients:  0.0203  0.2124 -0.0342  0.8015
 SCF Error: norm([F,P])=      0.225858666023, max([F,P])=      0.043710663709
 orbitals (Q,E):
 ---------------
 A :1...9            ( 2.00    -1.1607)  ( 2.00    -0.9761)  ( 2.00    -0.6799)  ( 2.00    -0.5874)
                     ( 2.00    -0.5412)  ( 2.00    -0.4435)  ( 2.00    -0.3673)  ( 2.00    -0.2456)
                     ( 0.00    -0.0470)

 CYCLE    6
  SDIIS (wt  0.890):  0.0137  0.0577 -0.0233  0.4081  0.5438
 A-DIIS (wt  0.110):  0.0000  0.0000  0.0000  0.0398  0.9602
  DIIS coefficients:  0.0122  0.0514 -0.0208  0.3678  0.5894
 SCF Error: norm([F,P])=      0.055948830140, max([F,P])=      0.011842213368
 orbitals (Q,E):
 ---------------
 A :1...9            ( 2.00    -1.1531)  ( 2.00    -0.9691)  ( 2.00    -0.6732)  ( 2.00    -0.5817)
                     ( 2.00    -0.5348)  ( 2.00    -0.4375)  ( 2.00    -0.3589)  ( 2.00    -0.2384)
                     ( 0.00    -0.0454)

 CYCLE    7
  SDIIS (wt  0.980):  0.0029 -0.0037 -0.0039  0.0836  0.3661  0.5550
 A-DIIS (wt  0.020):  0.0000  0.0000  0.0000  0.0000  0.0070  0.9930
  DIIS coefficients:  0.0028 -0.0036 -0.0038  0.0819  0.3590  0.5637
 SCF Error: norm([F,P])=      0.012604717499, max([F,P])=      0.002954105876
 orbitals (Q,E):
 ---------------
 A :1...9            ( 2.00    -1.1544)  ( 2.00    -0.9702)  ( 2.00    -0.6744)  ( 2.00    -0.5825)
                     ( 2.00    -0.5359)  ( 2.00    -0.4382)  ( 2.00    -0.3605)  ( 2.00    -0.2395)
                     ( 0.00    -0.0457)

 CYCLE    8
  SDIIS (wt  1.000):  0.0009 -0.0016 -0.0010  0.0129  0.0575  0.1234  0.8080
  DIIS coefficients:  0.0009 -0.0016 -0.0010  0.0129  0.0575  0.1234  0.8080
 SCF Error: norm([F,P])=      0.000357868680, max([F,P])=      0.000072510677
 orbitals (Q,E):
 ---------------
 A :1...9            ( 2.00    -1.1544)  ( 2.00    -0.9702)  ( 2.00    -0.6744)  ( 2.00    -0.5825)
                     ( 2.00    -0.5359)  ( 2.00    -0.4383)  ( 2.00    -0.3605)  ( 2.00    -0.2395)
                     ( 0.00    -0.0457)

 CYCLE    9
  SDIIS (wt  1.000):  0.0002 -0.0003 -0.0003  0.0025  0.0109  0.0277  0.2517  0.7075
  DIIS coefficients:  0.0002 -0.0003 -0.0003  0.0025  0.0109  0.0277  0.2517  0.7075
 SCF Error: norm([F,P])=      0.000063048453, max([F,P])=      0.000011514100
 orbitals (Q,E):
 ---------------
 A :1...9            ( 2.00    -1.1544)  ( 2.00    -0.9702)  ( 2.00    -0.6744)  ( 2.00    -0.5825)
                     ( 2.00    -0.5359)  ( 2.00    -0.4383)  ( 2.00    -0.3605)  ( 2.00    -0.2395)
                     ( 0.00    -0.0457)

 CYCLE   10
  SDIIS (wt  1.000):  0.0000 -0.0000 -0.0000  0.0001  0.0002  0.0009  0.0125  0.0807  0.9056
  DIIS coefficients:  0.0000 -0.0000 -0.0000  0.0001  0.0002  0.0009  0.0125  0.0807  0.9056
 SCF Error: norm([F,P])=      0.000006088190, max([F,P])=      0.000001178314
 orbitals (Q,E):
 ---------------
 A :1...9            ( 2.00    -1.1544)  ( 2.00    -0.9702)  ( 2.00    -0.6744)  ( 2.00    -0.5825)
                     ( 2.00    -0.5359)  ( 2.00    -0.4383)  ( 2.00    -0.3605)  ( 2.00    -0.2395)
                     ( 0.00    -0.0457)

 CYCLE   11
  SDIIS (wt  1.000):  0.0000 -0.0000 -0.0000 -0.0000 -0.0001 -0.0001 -0.0000  0.0083  0.1808  0.8112
  DIIS coefficients:  0.0000 -0.0000 -0.0000 -0.0000 -0.0001 -0.0001 -0.0000  0.0083  0.1808  0.8112
 SCF Error: norm([F,P])=      0.000000510630, max([F,P])=      0.000000112104
 orbitals (Q,E):
 ---------------
 A :1...9            ( 2.00    -1.1544)  ( 2.00    -0.9702)  ( 2.00    -0.6744)  ( 2.00    -0.5825)
                     ( 2.00    -0.5359)  ( 2.00    -0.4383)  ( 2.00    -0.3605)  ( 2.00    -0.2395)
                     ( 0.00    -0.0457)

 SCF CONVERGED
 cosmo_calcen: 0.5 (esolb+esolc) (Hartrees) =   -0.133536

 Solvation energy (screening term,uncorrected) =    -83.795046 kcal/mol

 Solvation energy (dispersion and cavitation terms) =      0.438726 kcal/mol
 Solvation Energy Contributions (Hartrees)
          esola   esolb+esolc
     0.13353589   -0.26707178
 esol last cycle   -0.13353589

 CYCLE   12
 *** Using FIT density in Focky
  SDIIS (wt  1.000):  0.0000  0.0000 -0.0000 -0.0000 -0.0000 -0.0003  0.0001  0.0261  0.2102  0.7639
  DIIS coefficients:  0.0000  0.0000 -0.0000 -0.0000 -0.0000 -0.0003  0.0001  0.0261  0.2102  0.7639
 SCF Error: norm([F,P])=      0.000000102348, max([F,P])=      0.000000029524
 orbitals (Q,E):
 ---------------
 A :1...18           ( 2.00    -1.1544)  ( 2.00    -0.9702)  ( 2.00    -0.6744)  ( 2.00    -0.5825)
                     ( 2.00    -0.5359)  ( 2.00    -0.4383)  ( 2.00    -0.3605)  ( 2.00    -0.2395)
                     ( 0.00    -0.0457)  ( 0.00     0.0136)  ( 0.00     0.0382)  ( 0.00     0.0415)
                     ( 0.00     0.0917)  ( 0.00     0.1691)  ( 0.00     0.1915)  ( 0.00     0.2048)
                     ( 0.00     0.2319)  ( 0.00     0.3119)
 cosmo_calcen: 0.5 (esolb+esolc) (Hartrees) =   -0.133536

 Solvation energy (screening term,uncorrected) =    -83.795045 kcal/mol

 Solvation energy (dispersion and cavitation terms) =      0.438726 kcal/mol
 Solvation Energy Contributions (Hartrees)
          esola   esolb+esolc
     0.13353589   -0.26707178
 esol last cycle   -0.13353589


 Fit test: (difference of exact and fit density, squared integrated, result summed over spins)
         SCF:                                          0.00003566993026

 Gross Charges per Atom (Z minus electrons)
 ==========================================
            -0.4890    0.2872    0.3885    0.4024   -0.1916    0.2977    0.3048
 Net Total:  1.00000000



 =================================================================
 M U L T I P O L E   D E R I V E D   C H A R G E   A N A L Y S I S
 =================================================================

 See: M. Swart, P.Th. van Duijnen, J.G. Snijders, J.Comput.Chem., (2001), p. 79-88.

 --------------------------------------- 
 Multipole derived atomic charges (a.u.)
 --------------------------------------- 

        Atom    Level:     MDC-m        MDC-d        MDC-q
 ---------------------------------------------------------
     1     O            0.065245    -0.476259    -0.622614
     2     H            0.093007     0.307274     0.418704
     3     H            0.197900     0.320826     0.439000
     4     H            0.193452     0.416128     0.411387
     5     O            0.107470    -0.184965    -0.315622
     6     H            0.148489     0.239616     0.302110
     7     H            0.194437     0.377380     0.367034
 *** Using NEW gradient routines ***


 Geometry CYCLE 1
 ==============

 Energy gradients wrt nuclear displacements
 ==========================================

     Atom      Cartesian (a.u./angstrom)
                 X         Y         Z
 ----------------------------------------
     1 O    -0.498148 -0.551801 -0.472084
     2 H     0.123535 -0.092398 -0.114531
     3 H    -0.000273 -0.032360 -0.040136
     4 H    -0.006305 -0.005453 -0.032311
     5 O     0.392648  0.655706  0.600756
     6 H     0.017438  0.043249  0.017311
     7 H    -0.028895 -0.016943  0.040994
 ----------------------------------------
 
----------------------------------------------------------------------
Geometry Convergence after Step   1       (Hartree/Angstrom,Angstrom)
----------------------------------------------------------------------
current energy                               -0.74873982 Hartree
energy change                      -0.74873982     0.00100000    F
constrained gradient max            0.65570604     0.00100000    F
constrained gradient rms            0.29003234     0.00066667    F
gradient max                        0.65570604
gradient rms                        0.29003234
cart. step max                      0.09297400     0.01000000    F
cart. step rms                      0.06834361     0.00666667    F
 


 Coordinates (Cartesian)
 =======================

     Atom                    bohr                                 angstrom                 Geometric Variables
                   X           Y           Z              X           Y           Z       (0:frozen, *:LT par.)
 --------------------------------------------------------------------------------------------------------------
     1 O      -1.340851    2.984020    3.952737      -0.709548    1.579076    2.091698      1       2       3
     2 H      -3.060068    2.030700    3.349286      -1.619318    1.074600    1.772366      4       5       6
     3 H       0.033890    1.809906    3.548868       0.017934    0.957761    1.877980      7       8       9
     4 H      -1.124560    4.402294    2.767213      -0.595091    2.329594    1.464346     10      11      12
     5 O      -2.877341    0.738193    1.805363      -1.522623    0.390635    0.955357     13      14      15
     6 H      -4.597423    0.025354    1.424736      -2.432852    0.013417    0.753938     16      17      18
     7 H      -2.227889    0.542312    0.092437      -1.178948    0.286979    0.048916     19      20      21
 --------------------------------------------------------------------------------------------------------------

 Number of elements of the density matrix on this node (used, total):       211      2346



 ===========================================
 Numerical Integration : Fuzzy Cells (Becke)
 ===========================================
  
 Becke grid quality: GOOD           
  
 Lebedev angular grid order:             min:  11 max:  31
 Nr. of radial points:                   min:  54 max:  58

 Total nr. of points:      83537
 Nr. of blocks:              653
 Block length:               128
 Nr. of dummy points:         47


 Test of Precision of the Numerical Integration Grid
 ===================================================

 Integral of the Total Core Density:                   3.99999773815130
 Relative Error:                                      -5.655E-07


 -------------------------------------------
  COSMO surface
  Area             =          243.096
  Volume           =          317.679
  Number of Points =          685
 -------------------------------------------



 ========================
 Density Fitting (zlmFit)
 ========================
  
 ZlmFit Fit Quality: GOOD           
  
 Max L-expansion:                        min:   7 max:   8
 Nr. of radial interpolation points:     min:  72 max:  84



 =====
 S C F  ***  ScaSCF  ***
 =====
  
 Initial density matrix is taken from previous geometry

 CYCLE    1
 SCF Error: norm([F,P])=      0.312062704167, max([F,P])=      0.057478246118
 orbitals (Q,E):
 ---------------
 A :1...18           ( 2.00    -1.2021)  ( 2.00    -1.1048)  ( 2.00    -0.7570)  ( 2.00    -0.6867)
                     ( 2.00    -0.6586)  ( 2.00    -0.5548)  ( 2.00    -0.4854)  ( 2.00    -0.4031)
                     ( 0.00    -0.2065)  ( 0.00    -0.1468)  ( 0.00    -0.1213)  ( 0.00    -0.1045)
                     ( 0.00    -0.0692)  ( 0.00     0.0274)  ( 0.00     0.0500)  ( 0.00     0.0590)
                     ( 0.00     0.0819)  ( 0.00     0.1602)

 CYCLE    2
   MIX coefficients:  0.8000  0.2000
 SCF Error: norm([F,P])=      0.452980594660, max([F,P])=      0.087430102241
 orbitals (Q,E):
 ---------------
 A :1...9            ( 2.00    -1.1959)  ( 2.00    -1.0973)  ( 2.00    -0.7467)  ( 2.00    -0.6755)
                     ( 2.00    -0.6462)  ( 2.00    -0.5484)  ( 2.00    -0.4767)  ( 2.00    -0.4005)
                     ( 0.00    -0.1779)

 CYCLE    3
  SDIIS (wt  0.000): -0.6780  1.6780
 A-DIIS (wt  1.000):  0.0000  1.0000
  DIIS coefficients:  0.0000  1.0000
 SCF Error: norm([F,P])=      0.186426721202, max([F,P])=      0.036609856095
 orbitals (Q,E):
 ---------------
 A :1...9            ( 2.00    -1.1207)  ( 2.00    -1.0159)  ( 2.00    -0.6609)  ( 2.00    -0.5909)
                     ( 2.00    -0.5538)  ( 2.00    -0.4722)  ( 2.00    -0.3926)  ( 2.00    -0.3329)
                     ( 0.00    -0.0514)

 CYCLE    4
  SDIIS (wt  0.000):  0.0405  0.5913  0.3682
 A-DIIS (wt  1.000):  0.0000  0.6996  0.3004
  DIIS coefficients:  0.0000  0.6996  0.3004
 SCF Error: norm([F,P])=      0.345383281633, max([F,P])=      0.069014698381
 orbitals (Q,E):
 ---------------
 A :1...9            ( 2.00    -1.0888)  ( 2.00    -0.9859)  ( 2.00    -0.6333)  ( 2.00    -0.5645)
                     ( 2.00    -0.5282)  ( 2.00    -0.4411)  ( 2.00    -0.3617)  ( 2.00    -0.2984)
                     ( 0.00    -0.0449)

 CYCLE    5
  SDIIS (wt  0.889): -0.0303  0.1762 -0.1030  0.9571
 A-DIIS (wt  0.111):  0.0000  0.0074  0.0000  0.9926
  DIIS coefficients: -0.0270  0.1575 -0.0916  0.9611
 SCF Error: norm([F,P])=      0.056887615600, max([F,P])=      0.011974661588
 orbitals (Q,E):
 ---------------
 A :1...9            ( 2.00    -1.0803)  ( 2.00    -0.9790)  ( 2.00    -0.6263)  ( 2.00    -0.5576)
                     ( 2.00    -0.5224)  ( 2.00    -0.4333)  ( 2.00    -0.3547)  ( 2.00    -0.2898)
                     ( 0.00    -0.0431)

 CYCLE    6
  SDIIS (wt  0.985): -0.0118  0.0329 -0.0197  0.2720  0.7267
 A-DIIS (wt  0.015):  0.0000  0.0000  0.0000  0.0000  1.0000
  DIIS coefficients: -0.0116  0.0324 -0.0194  0.2679  0.7308
 SCF Error: norm([F,P])=      0.011323262697, max([F,P])=      0.002484666359
 orbitals (Q,E):
 ---------------
 A :1...9            ( 2.00    -1.0817)  ( 2.00    -0.9800)  ( 2.00    -0.6274)  ( 2.00    -0.5588)
                     ( 2.00    -0.5231)  ( 2.00    -0.4347)  ( 2.00    -0.3555)  ( 2.00    -0.2913)
                     ( 0.00    -0.0433)

 CYCLE    7
  SDIIS (wt  1.000):  0.0030 -0.0028 -0.0016  0.1069  0.4314  0.4632
  DIIS coefficients:  0.0030 -0.0028 -0.0016  0.1069  0.4314  0.4632
 SCF Error: norm([F,P])=      0.002371598198, max([F,P])=      0.000464144981
 orbitals (Q,E):
 ---------------
 A :1...9            ( 2.00    -1.0816)  ( 2.00    -0.9800)  ( 2.00    -0.6274)  ( 2.00    -0.5587)
                     ( 2.00    -0.5233)  ( 2.00    -0.4346)  ( 2.00    -0.3557)  ( 2.00    -0.2912)
                     ( 0.00    -0.0433)

 CYCLE    8
  SDIIS (wt  1.000): -0.0002 -0.0003  0.0013  0.0016  0.0593  0.2169  0.7214
  DIIS coefficients: -0.0002 -0.0003  0.0013  0.0016  0.0593  0.2169  0.7214
 SCF Error: norm([F,P])=      0.000564080338, max([F,P])=      0.000123912288
 orbitals (Q,E):
 ---------------
 A :1...9            ( 2.00    -1.0816)  ( 2.00    -0.9800)  ( 2.00    -0.6274)  ( 2.00    -0.5587)
                     ( 2.00    -0.5232)  ( 2.00    -0.4346)  ( 2.00    -0.3557)  ( 2.00    -0.2912)
                     ( 0.00    -0.0433)

 CYCLE    9
  SDIIS (wt  1.000): -0.0002  0.0001  0.0004 -0.0009  0.0130  0.0606  0.2224  0.7047
  DIIS coefficients: -0.0002  0.0001  0.0004 -0.0009  0.0130  0.0606  0.2224  0.7047
 SCF Error: norm([F,P])=      0.000035561856, max([F,P])=      0.000011155172
 orbitals (Q,E):
 ---------------
 A :1...9            ( 2.00    -1.0816)  ( 2.00    -0.9800)  ( 2.00    -0.6274)  ( 2.00    -0.5587)
                     ( 2.00    -0.5232)  ( 2.00    -0.4346)  ( 2.00    -0.3557)  ( 2.00    -0.2912)
                     ( 0.00    -0.0433)

 CYCLE   10
  SDIIS (wt  1.000): -0.0000  0.0000  0.0001 -0.0002  0.0014  0.0064  0.0287  0.1211  0.8426
  DIIS coefficients: -0.0000  0.0000  0.0001 -0.0002  0.0014  0.0064  0.0287  0.1211  0.8426
 SCF Error: norm([F,P])=      0.000003907692, max([F,P])=      0.000000707683
 orbitals (Q,E):
 ---------------
 A :1...9            ( 2.00    -1.0816)  ( 2.00    -0.9800)  ( 2.00    -0.6274)  ( 2.00    -0.5587)
                     ( 2.00    -0.5232)  ( 2.00    -0.4346)  ( 2.00    -0.3557)  ( 2.00    -0.2912)
                     ( 0.00    -0.0433)

 SCF CONVERGED
 cosmo_calcen: 0.5 (esolb+esolc) (Hartrees) =   -0.129247

 Solvation energy (screening term,uncorrected) =    -81.103526 kcal/mol

 Solvation energy (dispersion and cavitation terms) =      0.454570 kcal/mol
 Solvation Energy Contributions (Hartrees)
          esola   esolb+esolc
     0.12924668   -0.25849337
 esol last cycle   -0.12924668

 CYCLE   11
 *** Using FIT density in Focky
  SDIIS (wt  1.000): -0.0000  0.0000  0.0000 -0.0000  0.0001  0.0004  0.0032  0.0174  0.1999  0.7790
  DIIS coefficients: -0.0000  0.0000  0.0000 -0.0000  0.0001  0.0004  0.0032  0.0174  0.1999  0.7790
 SCF Error: norm([F,P])=      0.000000519851, max([F,P])=      0.000000179594
 orbitals (Q,E):
 ---------------
 A :1...18           ( 2.00    -1.0816)  ( 2.00    -0.9800)  ( 2.00    -0.6274)  ( 2.00    -0.5587)
                     ( 2.00    -0.5232)  ( 2.00    -0.4346)  ( 2.00    -0.3557)  ( 2.00    -0.2912)
                     ( 0.00    -0.0433)  ( 0.00     0.0103)  ( 0.00     0.0414)  ( 0.00     0.0470)
                     ( 0.00     0.0815)  ( 0.00     0.1767)  ( 0.00     0.1942)  ( 0.00     0.2018)
                     ( 0.00     0.2283)  ( 0.00     0.3094)
 cosmo_calcen: 0.5 (esolb+esolc) (Hartrees) =   -0.129247

 Solvation energy (screening term,uncorrected) =    -81.103522 kcal/mol

 Solvation energy (dispersion and cavitation terms) =      0.454570 kcal/mol
 Solvation Energy Contributions (Hartrees)
          esola   esolb+esolc
     0.12924668   -0.25849335
 esol last cycle   -0.12924668


 Fit test: (difference of exact and fit density, squared integrated, result summed over spins)
         SCF:                                          0.00002750603767

 Gross Charges per Atom (Z minus electrons)
 ==========================================
            -0.4981    0.2566    0.4081    0.4193   -0.3149    0.3694    0.3596
 Net Total:  1.00000000



 =================================================================
 M U L T I P O L E   D E R I V E D   C H A R G E   A N A L Y S I S
 =================================================================

 See: M. Swart, P.Th. van Duijnen, J.G. Snijders, J.Comput.Chem., (2001), p. 79-88.

 --------------------------------------- 
 Multipole derived atomic charges (a.u.)
 --------------------------------------- 

        Atom    Level:     MDC-m        MDC-d        MDC-q
 ---------------------------------------------------------
     1     O            0.058548    -0.480433    -0.518415
     2     H            0.132405     0.332462     0.349703
     3     H            0.189402     0.348648     0.404745
     4     H            0.190956     0.416860     0.393649
     5     O            0.054599    -0.326905    -0.369940
     6     H            0.175275     0.312541     0.365887
     7     H            0.198814     0.396827     0.374371
 *** Using NEW gradient routines ***


 Geometry CYCLE 2
 ==============

 Energy gradients wrt nuclear displacements
 ==========================================

     Atom      Cartesian (a.u./angstrom)
                 X         Y         Z
 ----------------------------------------
     1 O    -0.185693 -0.249456 -0.220187
     2 H    -0.019706 -0.048079 -0.018713
     3 H     0.000225 -0.007093 -0.013919
     4 H    -0.003074 -0.003093 -0.015377
     5 O     0.250716  0.322301  0.268165
     6 H    -0.015613  0.011437 -0.009516
     7 H    -0.026854 -0.026017  0.009547
 ----------------------------------------

 dE(predicted):    -0.17608E+00, dE(actual):    -0.15680E+00, Trust radius:    1.058301, all in a.u.
 
----------------------------------------------------------------------
Geometry Convergence after Step   2       (Hartree/Angstrom,Angstrom)
----------------------------------------------------------------------
current energy                               -0.90554233 Hartree
energy change                      -0.15680252     0.00100000    F
constrained gradient max            0.32230085     0.00100000    F
constrained gradient rms            0.13616262     0.00066667    F
gradient max                        0.32230085
gradient rms                        0.13616262
cart. step max                      0.08279485     0.01000000    F
cart. step rms                      0.05781886     0.00666667    F
 


 Coordinates (Cartesian)
 =======================

     Atom                    bohr                                 angstrom                 Geometric Variables
                   X           Y           Z              X           Y           Z       (0:frozen, *:LT par.)
 --------------------------------------------------------------------------------------------------------------
     1 O      -1.278755    3.082771    4.039405      -0.676688    1.631332    2.137561      1       2       3
     2 H      -2.981225    2.069522    3.262378      -1.577596    1.095144    1.726376      4       5       6
     3 H       0.112121    1.915583    3.685398       0.059332    1.013683    1.950228      7       8       9
     4 H      -0.998495    4.526503    2.911809      -0.528381    2.395322    1.540863     10      11      12
     5 O      -3.020246    0.616997    1.666926      -1.598245    0.326501    0.882099     13      14      15
     6 H      -4.701975   -0.131106    1.419436      -2.488178   -0.069378    0.751133     16      17      18
     7 H      -2.325668    0.452508   -0.044712      -1.230690    0.239457   -0.023661     19      20      21
 --------------------------------------------------------------------------------------------------------------

 Number of elements of the density matrix on this node (used, total):       211      2346



 ===========================================
 Numerical Integration : Fuzzy Cells (Becke)
 ===========================================
  
 Becke grid quality: GOOD           
  
 Lebedev angular grid order:             min:  11 max:  31
 Nr. of radial points:                   min:  54 max:  58

 Total nr. of points:      83540
 Nr. of blocks:              653
 Block length:               128
 Nr. of dummy points:         44


 Test of Precision of the Numerical Integration Grid
 ===================================================

 Integral of the Total Core Density:                   3.99999995327727
 Relative Error:                                      -1.168E-08


 -------------------------------------------
  COSMO surface
  Area             =          248.458
  Volume           =          325.946
  Number of Points =          702
 -------------------------------------------



 ========================
 Density Fitting (zlmFit)
 ========================
  
 ZlmFit Fit Quality: GOOD           
  
 Max L-expansion:                        min:   7 max:   8
 Nr. of radial interpolation points:     min:  72 max:  84



 =====
 S C F  ***  ScaSCF  ***
 =====
  
 Initial density matrix is taken from previous geometry

 CYCLE    1
 SCF Error: norm([F,P])=      0.188321030058, max([F,P])=      0.031017795788
 orbitals (Q,E):
 ---------------
 A :1...18           ( 2.00    -1.2300)  ( 2.00    -1.1671)  ( 2.00    -0.7796)  ( 2.00    -0.7316)
                     ( 2.00    -0.7156)  ( 2.00    -0.6039)  ( 2.00    -0.5323)  ( 2.00    -0.4895)
                     ( 0.00    -0.2299)  ( 0.00    -0.1743)  ( 0.00    -0.1389)  ( 0.00    -0.1309)
                     ( 0.00    -0.0918)  ( 0.00    -0.0057)  ( 0.00     0.0247)  ( 0.00     0.0341)
                     ( 0.00     0.0528)  ( 0.00     0.1070)

 CYCLE    2
   MIX coefficients:  0.8000  0.2000
 SCF Error: norm([F,P])=      0.214740809004, max([F,P])=      0.040882311749
 orbitals (Q,E):
 ---------------
 A :1...9            ( 2.00    -1.2021)  ( 2.00    -1.1391)  ( 2.00    -0.7493)  ( 2.00    -0.7021)
                     ( 2.00    -0.6850)  ( 2.00    -0.5782)  ( 2.00    -0.5026)  ( 2.00    -0.4654)
                     ( 0.00    -0.1935)

 CYCLE    3
  SDIIS (wt  0.000): -0.7498  1.7498
 A-DIIS (wt  1.000):  0.0000  1.0000
  DIIS coefficients:  0.0000  1.0000
 SCF Error: norm([F,P])=      0.096821393127, max([F,P])=      0.016176759317
 orbitals (Q,E):
 ---------------
 A :1...9            ( 2.00    -1.0714)  ( 2.00    -1.0043)  ( 2.00    -0.6115)  ( 2.00    -0.5695)
                     ( 2.00    -0.5427)  ( 2.00    -0.4516)  ( 2.00    -0.3667)  ( 2.00    -0.3417)
                     ( 0.00    -0.0445)

 CYCLE    4
  SDIIS (wt  0.000):  1.7980 -2.0000  1.2020
 A-DIIS (wt  1.000):  0.0000  0.6510  0.3490
  DIIS coefficients:  0.0000  0.6510  0.3490
 SCF Error: norm([F,P])=      0.167245822687, max([F,P])=      0.039848110911
 orbitals (Q,E):
 ---------------
 A :1...9            ( 2.00    -1.0547)  ( 2.00    -0.9894)  ( 2.00    -0.5980)  ( 2.00    -0.5544)
                     ( 2.00    -0.5313)  ( 2.00    -0.4337)  ( 2.00    -0.3520)  ( 2.00    -0.3235)
                     ( 0.00    -0.0413)

 CYCLE    5
  SDIIS (wt  0.992): -0.3041  0.4814 -0.1599  0.9826
 A-DIIS (wt  0.008):  0.0000  0.0000  0.0000  1.0000
  DIIS coefficients: -0.3016  0.4775 -0.1586  0.9827
 SCF Error: norm([F,P])=      0.008636340075, max([F,P])=      0.001810931797
 orbitals (Q,E):
 ---------------
 A :1...9            ( 2.00    -1.0544)  ( 2.00    -0.9892)  ( 2.00    -0.5977)  ( 2.00    -0.5542)
                     ( 2.00    -0.5312)  ( 2.00    -0.4330)  ( 2.00    -0.3514)  ( 2.00    -0.3231)
                     ( 0.00    -0.0413)

 CYCLE    6
  SDIIS (wt  1.000): -0.0123  0.0204 -0.0091  0.2078  0.7933
  DIIS coefficients: -0.0123  0.0204 -0.0091  0.2078  0.7933
 SCF Error: norm([F,P])=      0.001826643776, max([F,P])=      0.000545796112
 orbitals (Q,E):
 ---------------
 A :1...9            ( 2.00    -1.0545)  ( 2.00    -0.9893)  ( 2.00    -0.5979)  ( 2.00    -0.5543)
                     ( 2.00    -0.5313)  ( 2.00    -0.4332)  ( 2.00    -0.3516)  ( 2.00    -0.3232)
                     ( 0.00    -0.0413)

 CYCLE    7
  SDIIS (wt  1.000): -0.0116  0.0146 -0.0063  0.0157  0.1816  0.8060
  DIIS coefficients: -0.0116  0.0146 -0.0063  0.0157  0.1816  0.8060
 SCF Error: norm([F,P])=      0.000396105185, max([F,P])=      0.000079340979
 orbitals (Q,E):
 ---------------
 A :1...9            ( 2.00    -1.0545)  ( 2.00    -0.9893)  ( 2.00    -0.5978)  ( 2.00    -0.5543)
                     ( 2.00    -0.5313)  ( 2.00    -0.4332)  ( 2.00    -0.3515)  ( 2.00    -0.3232)
                     ( 0.00    -0.0412)

 CYCLE    8
  SDIIS (wt  1.000):  0.0008 -0.0016  0.0007  0.0014  0.0823  0.4836  0.4327
  DIIS coefficients:  0.0008 -0.0016  0.0007  0.0014  0.0823  0.4836  0.4327
 SCF Error: norm([F,P])=      0.000276403939, max([F,P])=      0.000062406487
 orbitals (Q,E):
 ---------------
 A :1...9            ( 2.00    -1.0545)  ( 2.00    -0.9893)  ( 2.00    -0.5979)  ( 2.00    -0.5543)
                     ( 2.00    -0.5313)  ( 2.00    -0.4332)  ( 2.00    -0.3515)  ( 2.00    -0.3232)
                     ( 0.00    -0.0412)

 CYCLE    9
  SDIIS (wt  1.000): -0.0003  0.0003 -0.0001 -0.0004  0.0189  0.1326  0.1353  0.7137
  DIIS coefficients: -0.0003  0.0003 -0.0001 -0.0004  0.0189  0.1326  0.1353  0.7137
 SCF Error: norm([F,P])=      0.000020880033, max([F,P])=      0.000004662051
 orbitals (Q,E):
 ---------------
 A :1...9            ( 2.00    -1.0545)  ( 2.00    -0.9893)  ( 2.00    -0.5979)  ( 2.00    -0.5543)
                     ( 2.00    -0.5313)  ( 2.00    -0.4332)  ( 2.00    -0.3515)  ( 2.00    -0.3232)
                     ( 0.00    -0.0412)

 CYCLE   10
  SDIIS (wt  1.000): -0.0000  0.0000  0.0000 -0.0001  0.0019  0.0162  0.0123  0.1663  0.8034
  DIIS coefficients: -0.0000  0.0000  0.0000 -0.0001  0.0019  0.0162  0.0123  0.1663  0.8034
 SCF Error: norm([F,P])=      0.000003531959, max([F,P])=      0.000000732949
 orbitals (Q,E):
 ---------------
 A :1...9            ( 2.00    -1.0545)  ( 2.00    -0.9893)  ( 2.00    -0.5979)  ( 2.00    -0.5543)
                     ( 2.00    -0.5313)  ( 2.00    -0.4332)  ( 2.00    -0.3515)  ( 2.00    -0.3232)
                     ( 0.00    -0.0412)

 SCF CONVERGED
 cosmo_calcen: 0.5 (esolb+esolc) (Hartrees) =   -0.126391

 Solvation energy (screening term,uncorrected) =    -79.311335 kcal/mol

 Solvation energy (dispersion and cavitation terms) =      0.464598 kcal/mol
 Solvation Energy Contributions (Hartrees)
          esola   esolb+esolc
     0.12639064   -0.25278129
 esol last cycle   -0.12639064

 CYCLE   11
 *** Using FIT density in Focky
  SDIIS (wt  1.000): -0.0000 -0.0000 -0.0000 -0.0000  0.0002  0.0017  0.0005  0.0262  0.1617  0.8097
  DIIS coefficients: -0.0000 -0.0000 -0.0000 -0.0000  0.0002  0.0017  0.0005  0.0262  0.1617  0.8097
 SCF Error: norm([F,P])=      0.000000264365, max([F,P])=      0.000000064442
 orbitals (Q,E):
 ---------------
 A :1...18           ( 2.00    -1.0545)  ( 2.00    -0.9893)  ( 2.00    -0.5979)  ( 2.00    -0.5543)
                     ( 2.00    -0.5313)  ( 2.00    -0.4332)  ( 2.00    -0.3515)  ( 2.00    -0.3232)
                     ( 0.00    -0.0412)  ( 0.00     0.0094)  ( 0.00     0.0471)  ( 0.00     0.0481)
                     ( 0.00     0.0857)  ( 0.00     0.1747)  ( 0.00     0.1982)  ( 0.00     0.2033)
                     ( 0.00     0.2307)  ( 0.00     0.2877)
 cosmo_calcen: 0.5 (esolb+esolc) (Hartrees) =   -0.126391

 Solvation energy (screening term,uncorrected) =    -79.311334 kcal/mol

 Solvation energy (dispersion and cavitation terms) =      0.464598 kcal/mol
 Solvation Energy Contributions (Hartrees)
          esola   esolb+esolc
     0.12639064   -0.25278129
 esol last cycle   -0.12639064


 Fit test: (difference of exact and fit density, squared integrated, result summed over spins)
         SCF:                                          0.00002431499525

 Gross Charges per Atom (Z minus electrons)
 ==========================================
            -0.5034    0.2647    0.4194    0.4261   -0.3680    0.3909    0.3703
 Net Total:  1.00000000



 =================================================================
 M U L T I P O L E   D E R I V E D   C H A R G E   A N A L Y S I S
 =================================================================

 See: M. Swart, P.Th. van Duijnen, J.G. Snijders, J.Comput.Chem., (2001), p. 79-88.

 --------------------------------------- 
 Multipole derived atomic charges (a.u.)
 --------------------------------------- 

        Atom    Level:     MDC-m        MDC-d        MDC-q
 ---------------------------------------------------------
     1     O            0.067536    -0.476704    -0.427116
     2     H            0.137804     0.330006     0.292142
     3     H            0.189590     0.368653     0.376748
     4     H            0.192562     0.420350     0.381875
     5     O            0.037726    -0.380994    -0.375913
     6     H            0.176223     0.343075     0.388500
     7     H            0.198559     0.395613     0.363763
 *** Using NEW gradient routines ***


 Geometry CYCLE 3
 ==============

 Energy gradients wrt nuclear displacements
 ==========================================

     Atom      Cartesian (a.u./angstrom)
                 X         Y         Z
 ----------------------------------------
     1 O    -0.067146 -0.114619 -0.110895
     2 H    -0.046602 -0.022212  0.013649
     3 H    -0.003773 -0.001489 -0.006340
     4 H    -0.003017 -0.006721 -0.005940
     5 O     0.132652  0.160039  0.120134
     6 H     0.002602  0.008557 -0.004775
     7 H    -0.014716 -0.023555 -0.005832
 ----------------------------------------

 dE(predicted):    -0.45561E-01, dE(actual):    -0.66951E-01, Trust radius:    1.058301, all in a.u.
 
----------------------------------------------------------------------
Geometry Convergence after Step   3       (Hartree/Angstrom,Angstrom)
----------------------------------------------------------------------
current energy                               -0.97249314 Hartree
energy change                      -0.06695081     0.00100000    F
constrained gradient max            0.16003924     0.00100000    F
constrained gradient rms            0.06600538     0.00066667    F
gradient max                        0.16003924
gradient rms                        0.06600538
cart. step max                      0.09002767     0.01000000    F
cart. step rms                      0.06331642     0.00666667    F
 


 Coordinates (Cartesian)
 =======================

     Atom                    bohr                                 angstrom                 Geometric Variables
                   X           Y           Z              X           Y           Z       (0:frozen, *:LT par.)
 --------------------------------------------------------------------------------------------------------------
     1 O      -1.236420    3.182287    4.114854      -0.654285    1.683994    2.177487      1       2       3
     2 H      -2.822139    2.060581    3.129717      -1.493412    1.090413    1.656175      4       5       6
     3 H       0.207680    2.042230    3.855525       0.109900    1.080702    2.040256      7       8       9
     4 H      -0.881361    4.663070    3.048777      -0.466396    2.467590    1.613343     10      11      12
     5 O      -3.180146    0.464886    1.534916      -1.682861    0.246007    0.812242     13      14      15
     6 H      -4.860059   -0.276661    1.401570      -2.571832   -0.146403    0.741679     16      17      18
     7 H      -2.421797    0.396385   -0.144719      -1.281560    0.209758   -0.076582     19      20      21
 --------------------------------------------------------------------------------------------------------------

 Number of elements of the density matrix on this node (used, total):       211      2346



 ===========================================
 Numerical Integration : Fuzzy Cells (Becke)
 ===========================================
  
 Becke grid quality: GOOD           
  
 Lebedev angular grid order:             min:  11 max:  31
 Nr. of radial points:                   min:  54 max:  58

 Total nr. of points:      83548
 Nr. of blocks:              653
 Block length:               128
 Nr. of dummy points:         36


 Test of Precision of the Numerical Integration Grid
 ===================================================

 Integral of the Total Core Density:                   4.00000133441789
 Relative Error:                                       3.336E-07


 -------------------------------------------
  COSMO surface
  Area             =          254.411
  Volume           =          333.085
  Number of Points =          724
 -------------------------------------------



 ========================
 Density Fitting (zlmFit)
 ========================
  
 ZlmFit Fit Quality: GOOD           
  
 Max L-expansion:                        min:   7 max:   8
 Nr. of radial interpolation points:     min:  72 max:  84



 =====
 S C F  ***  ScaSCF  ***
 =====
  
 Initial density matrix is taken from previous geometry

 CYCLE    1
 SCF Error: norm([F,P])=      0.160418467259, max([F,P])=      0.027414245075
 orbitals (Q,E):
 ---------------
 A :1...18           ( 2.00    -1.2396)  ( 2.00    -1.1975)  ( 2.00    -0.7788)  ( 2.00    -0.7580)
                     ( 2.00    -0.7457)  ( 2.00    -0.6273)  ( 2.00    -0.5537)  ( 2.00    -0.5353)
                     ( 0.00    -0.2413)  ( 0.00    -0.1900)  ( 0.00    -0.1481)  ( 0.00    -0.1438)
                     ( 0.00    -0.0936)  ( 0.00    -0.0198)  ( 0.00     0.0051)  ( 0.00     0.0193)
                     ( 0.00     0.0310)  ( 0.00     0.0648)

 CYCLE    2
   MIX coefficients:  0.8000  0.2000
 SCF Error: norm([F,P])=      0.138144155076, max([F,P])=      0.028365551451
 orbitals (Q,E):
 ---------------
 A :1...9            ( 2.00    -1.2036)  ( 2.00    -1.1600)  ( 2.00    -0.7405)  ( 2.00    -0.7185)
                     ( 2.00    -0.7092)  ( 2.00    -0.5928)  ( 2.00    -0.5174)  ( 2.00    -0.4997)
                     ( 0.00    -0.2016)

 CYCLE    3
  SDIIS (wt  0.000):  0.0939 -0.6468  1.5529
 A-DIIS (wt  1.000):  0.0000  0.0000  1.0000
  DIIS coefficients:  0.0000  0.0000  1.0000
 SCF Error: norm([F,P])=      0.067561532467, max([F,P])=      0.014272789426
 orbitals (Q,E):
 ---------------
 A :1...9            ( 2.00    -1.0493)  ( 2.00    -0.9987)  ( 2.00    -0.5804)  ( 2.00    -0.5588)
                     ( 2.00    -0.5469)  ( 2.00    -0.4407)  ( 2.00    -0.3663)  ( 2.00    -0.3417)
                     ( 0.00    -0.0419)

 CYCLE    4
  SDIIS (wt  0.000):  1.7916 -2.0000  1.2084
 A-DIIS (wt  1.000):  0.0000  0.5562  0.4438
  DIIS coefficients:  0.0000  0.5562  0.4438
 SCF Error: norm([F,P])=      0.103261944231, max([F,P])=      0.028515087683
 orbitals (Q,E):
 ---------------
 A :1...9            ( 2.00    -1.0366)  ( 2.00    -0.9912)  ( 2.00    -0.5716)  ( 2.00    -0.5488)
                     ( 2.00    -0.5408)  ( 2.00    -0.4274)  ( 2.00    -0.3540)  ( 2.00    -0.3342)
                     ( 0.00    -0.0399)

 CYCLE    5
  SDIIS (wt  0.935): -0.9721  1.3223 -0.2948  0.9446
 A-DIIS (wt  0.065):  0.0000  0.0000  0.0191  0.9809
  DIIS coefficients: -0.9092  1.2368 -0.2745  0.9469
 SCF Error: norm([F,P])=      0.026330177758, max([F,P])=      0.007405696487
 orbitals (Q,E):
 ---------------
 A :1...9            ( 2.00    -1.0403)  ( 2.00    -0.9934)  ( 2.00    -0.5743)  ( 2.00    -0.5515)
                     ( 2.00    -0.5428)  ( 2.00    -0.4306)  ( 2.00    -0.3568)  ( 2.00    -0.3362)
                     ( 0.00    -0.0406)

 CYCLE    6
  SDIIS (wt  1.000): -0.0623  0.0822 -0.0108  0.1628  0.8279
  DIIS coefficients: -0.0623  0.0822 -0.0108  0.1628  0.8279
 SCF Error: norm([F,P])=      0.002415605608, max([F,P])=      0.000586195726
 orbitals (Q,E):
 ---------------
 A :1...9            ( 2.00    -1.0400)  ( 2.00    -0.9933)  ( 2.00    -0.5741)  ( 2.00    -0.5513)
                     ( 2.00    -0.5427)  ( 2.00    -0.4305)  ( 2.00    -0.3567)  ( 2.00    -0.3361)
                     ( 0.00    -0.0405)

 CYCLE    7
  SDIIS (wt  1.000):  0.0105 -0.0142  0.0052  0.0073  0.1567  0.8346
  DIIS coefficients:  0.0105 -0.0142  0.0052  0.0073  0.1567  0.8346
 SCF Error: norm([F,P])=      0.000208948028, max([F,P])=      0.000044472117
 orbitals (Q,E):
 ---------------
 A :1...9            ( 2.00    -1.0400)  ( 2.00    -0.9933)  ( 2.00    -0.5741)  ( 2.00    -0.5513)
                     ( 2.00    -0.5427)  ( 2.00    -0.4305)  ( 2.00    -0.3567)  ( 2.00    -0.3362)
                     ( 0.00    -0.0405)

 CYCLE    8
  SDIIS (wt  1.000): -0.0024  0.0028 -0.0018  0.0020  0.0456  0.3350  0.6189
  DIIS coefficients: -0.0024  0.0028 -0.0018  0.0020  0.0456  0.3350  0.6189
 SCF Error: norm([F,P])=      0.000078012151, max([F,P])=      0.000020841732
 orbitals (Q,E):
 ---------------
 A :1...9            ( 2.00    -1.0400)  ( 2.00    -0.9933)  ( 2.00    -0.5741)  ( 2.00    -0.5513)
                     ( 2.00    -0.5427)  ( 2.00    -0.4305)  ( 2.00    -0.3567)  ( 2.00    -0.3361)
                     ( 0.00    -0.0405)

 CYCLE    9
  SDIIS (wt  1.000): -0.0002  0.0001 -0.0003  0.0002  0.0107  0.0878  0.2541  0.6475
  DIIS coefficients: -0.0002  0.0001 -0.0003  0.0002  0.0107  0.0878  0.2541  0.6475
 SCF Error: norm([F,P])=      0.000015447819, max([F,P])=      0.000003989186
 orbitals (Q,E):
 ---------------
 A :1...9            ( 2.00    -1.0400)  ( 2.00    -0.9933)  ( 2.00    -0.5741)  ( 2.00    -0.5513)
                     ( 2.00    -0.5427)  ( 2.00    -0.4305)  ( 2.00    -0.3567)  ( 2.00    -0.3361)
                     ( 0.00    -0.0405)

 CYCLE   10
  SDIIS (wt  1.000): -0.0000 -0.0000 -0.0000 -0.0000  0.0010  0.0099  0.0458  0.1372  0.8062
  DIIS coefficients: -0.0000 -0.0000 -0.0000 -0.0000  0.0010  0.0099  0.0458  0.1372  0.8062
 SCF Error: norm([F,P])=      0.000001153118, max([F,P])=      0.000000280240
 orbitals (Q,E):
 ---------------
 A :1...9            ( 2.00    -1.0400)  ( 2.00    -0.9933)  ( 2.00    -0.5741)  ( 2.00    -0.5513)
                     ( 2.00    -0.5427)  ( 2.00    -0.4305)  ( 2.00    -0.3567)  ( 2.00    -0.3361)
                     ( 0.00    -0.0405)

 SCF CONVERGED
 cosmo_calcen: 0.5 (esolb+esolc) (Hartrees) =   -0.124129

 Solvation energy (screening term,uncorrected) =    -77.892111 kcal/mol

 Solvation energy (dispersion and cavitation terms) =      0.475730 kcal/mol
 Solvation Energy Contributions (Hartrees)
          esola   esolb+esolc
     0.12412897   -0.24825794
 esol last cycle   -0.12412897

 CYCLE   11
 *** Using FIT density in Focky
  SDIIS (wt  1.000):  0.0000 -0.0000 -0.0000 -0.0000  0.0000  0.0006  0.0048  0.0141  0.1362  0.8442
  DIIS coefficients:  0.0000 -0.0000 -0.0000 -0.0000  0.0000  0.0006  0.0048  0.0141  0.1362  0.8442
 SCF Error: norm([F,P])=      0.000000107622, max([F,P])=      0.000000021712
 orbitals (Q,E):
 ---------------
 A :1...18           ( 2.00    -1.0400)  ( 2.00    -0.9933)  ( 2.00    -0.5741)  ( 2.00    -0.5513)
                     ( 2.00    -0.5427)  ( 2.00    -0.4305)  ( 2.00    -0.3567)  ( 2.00    -0.3361)
                     ( 0.00    -0.0405)  ( 0.00     0.0069)  ( 0.00     0.0465)  ( 0.00     0.0509)
                     ( 0.00     0.0961)  ( 0.00     0.1783)  ( 0.00     0.1978)  ( 0.00     0.2016)
                     ( 0.00     0.2236)  ( 0.00     0.2620)
 cosmo_calcen: 0.5 (esolb+esolc) (Hartrees) =   -0.124129

 Solvation energy (screening term,uncorrected) =    -77.892111 kcal/mol

 Solvation energy (dispersion and cavitation terms) =      0.475730 kcal/mol
 Solvation Energy Contributions (Hartrees)
          esola   esolb+esolc
     0.12412897   -0.24825793
 esol last cycle   -0.12412897


 Fit test: (difference of exact and fit density, squared integrated, result summed over spins)
         SCF:                                          0.00002407307744

 Gross Charges per Atom (Z minus electrons)
 ==========================================
            -0.5079    0.2953    0.4289    0.4272   -0.4016    0.3834    0.3747
 Net Total:  1.00000000



 =================================================================
 M U L T I P O L E   D E R I V E D   C H A R G E   A N A L Y S I S
 =================================================================

 See: M. Swart, P.Th. van Duijnen, J.G. Snijders, J.Comput.Chem., (2001), p. 79-88.

 --------------------------------------- 
 Multipole derived atomic charges (a.u.)
 --------------------------------------- 

        Atom    Level:     MDC-m        MDC-d        MDC-q
 ---------------------------------------------------------
     1     O            0.074941    -0.464487    -0.325742
     2     H            0.135972     0.318825     0.217735
     3     H            0.193497     0.388192     0.355150
     4     H            0.198292     0.427005     0.367230
     5     O            0.024528    -0.457009    -0.340223
     6     H            0.181752     0.384692     0.385492
     7     H            0.191017     0.402782     0.340357
 *** Using NEW gradient routines ***


 Geometry CYCLE 4
 ==============

 Energy gradients wrt nuclear displacements
 ==========================================

     Atom      Cartesian (a.u./angstrom)
                 X         Y         Z
 ----------------------------------------
     1 O    -0.014011 -0.036045 -0.036494
     2 H    -0.036540 -0.004307  0.022340
     3 H    -0.004334 -0.006055 -0.006672
     4 H    -0.000570 -0.001549 -0.005235
     5 O     0.052187  0.055676  0.022884
     6 H     0.006419  0.003536  0.002355
     7 H    -0.003152 -0.011256  0.000823
 ----------------------------------------

 dE(predicted):    -0.25705E-01, dE(actual):    -0.35299E-01, Trust radius:    1.058301, all in a.u.
 
----------------------------------------------------------------------
Geometry Convergence after Step   4       (Hartree/Angstrom,Angstrom)
----------------------------------------------------------------------
current energy                               -1.00779242 Hartree
energy change                      -0.03529928     0.00100000    F
constrained gradient max            0.05567574     0.00100000    F
constrained gradient rms            0.02325200     0.00066667    F
gradient max                        0.05567574
gradient rms                        0.02325200
cart. step max                      0.10393611     0.01000000    F
cart. step rms                      0.05950702     0.00666667    F
 


 Coordinates (Cartesian)
 =======================

     Atom                    bohr                                 angstrom                 Geometric Variables
                   X           Y           Z              X           Y           Z       (0:frozen, *:LT par.)
 --------------------------------------------------------------------------------------------------------------
     1 O      -1.210219    3.258316    4.161339      -0.640421    1.724227    2.202086      1       2       3
     2 H      -2.631716    1.983837    3.001035      -1.392644    1.049801    1.588079      4       5       6
     3 H       0.317706    2.201743    4.051936       0.168123    1.165112    2.144192      7       8       9
     4 H      -0.813772    4.761533    3.144882      -0.430629    2.519695    1.664200     10      11      12
     5 O      -3.300033    0.309493    1.448411      -1.746302    0.163776    0.766466     13      14      15
     6 H      -5.020265   -0.338608    1.359610      -2.656610   -0.179184    0.719474     16      17      18
     7 H      -2.535944    0.356464   -0.226572      -1.341964    0.188633   -0.119897     19      20      21
 --------------------------------------------------------------------------------------------------------------

 Number of elements of the density matrix on this node (used, total):       211      2346



 ===========================================
 Numerical Integration : Fuzzy Cells (Becke)
 ===========================================
  
 Becke grid quality: GOOD           
  
 Lebedev angular grid order:             min:  11 max:  31
 Nr. of radial points:                   min:  54 max:  58

 Total nr. of points:      83550
 Nr. of blocks:              653
 Block length:               128
 Nr. of dummy points:         34


 Test of Precision of the Numerical Integration Grid
 ===================================================

 Integral of the Total Core Density:                   4.00000161467412
 Relative Error:                                       4.037E-07


 -------------------------------------------
  COSMO surface
  Area             =          260.332
  Volume           =          339.979
  Number of Points =          732
 -------------------------------------------



 ========================
 Density Fitting (zlmFit)
 ========================
  
 ZlmFit Fit Quality: GOOD           
  
 Max L-expansion:                        min:   7 max:   8
 Nr. of radial interpolation points:     min:  72 max:  84



 =====
 S C F  ***  ScaSCF  ***
 =====
  
 Initial density matrix is taken from previous geometry

 CYCLE    1
 SCF Error: norm([F,P])=      0.135555678727, max([F,P])=      0.027727437859
 orbitals (Q,E):
 ---------------
 A :1...18           ( 2.00    -1.2527)  ( 2.00    -1.2167)  ( 2.00    -0.7850)  ( 2.00    -0.7743)
                     ( 2.00    -0.7643)  ( 2.00    -0.6450)  ( 2.00    -0.5788)  ( 2.00    -0.5555)
                     ( 0.00    -0.2525)  ( 0.00    -0.2031)  ( 0.00    -0.1613)  ( 0.00    -0.1506)
                     ( 0.00    -0.0914)  ( 0.00    -0.0311)  ( 0.00    -0.0155)  ( 0.00     0.0071)
                     ( 0.00     0.0150)  ( 0.00     0.0203)

 CYCLE    2
  SDIIS (wt  0.000):  0.3701  0.6299
 A-DIIS (wt  1.000):  0.0000  1.0000
  DIIS coefficients:  0.0000  1.0000
 SCF Error: norm([F,P])=      0.094410263992, max([F,P])=      0.025152765641
 orbitals (Q,E):
 ---------------
 A :1...9            ( 2.00    -1.0454)  ( 2.00    -0.9938)  ( 2.00    -0.5721)  ( 2.00    -0.5524)
                     ( 2.00    -0.5462)  ( 2.00    -0.4384)  ( 2.00    -0.3777)  ( 2.00    -0.3358)
                     ( 0.00    -0.0418)

 CYCLE    3
  SDIIS (wt  0.000):  0.1341  0.5509  0.3150
 A-DIIS (wt  1.000):  0.0000  0.5628  0.4372
  DIIS coefficients:  0.0000  0.5628  0.4372
 SCF Error: norm([F,P])=      0.142319134416, max([F,P])=      0.040541327987
 orbitals (Q,E):
 ---------------
 A :1...9            ( 2.00    -1.0282)  ( 2.00    -0.9927)  ( 2.00    -0.5603)  ( 2.00    -0.5485)
                     ( 2.00    -0.5388)  ( 2.00    -0.4237)  ( 2.00    -0.3625)  ( 2.00    -0.3355)
                     ( 0.00    -0.0400)

 CYCLE    4
  SDIIS (wt  0.904):  0.1514  0.2381  0.6105
 A-DIIS (wt  0.096):  0.0000  0.0475  0.9525
  DIIS coefficients:  0.1369  0.2198  0.6433
 SCF Error: norm([F,P])=      0.040201580604, max([F,P])=      0.010516611798
 orbitals (Q,E):
 ---------------
 A :1...9            ( 2.00    -1.0343)  ( 2.00    -0.9929)  ( 2.00    -0.5644)  ( 2.00    -0.5484)
                     ( 2.00    -0.5434)  ( 2.00    -0.4278)  ( 2.00    -0.3667)  ( 2.00    -0.3349)
                     ( 0.00    -0.0410)

 CYCLE    5
  SDIIS (wt  0.983):  0.0471  0.0904  0.3540  0.5086
 A-DIIS (wt  0.017):  0.0000  0.0000  0.0523  0.9477
  DIIS coefficients:  0.0463  0.0889  0.3489  0.5159
 SCF Error: norm([F,P])=      0.012017325249, max([F,P])=      0.002652510428
 orbitals (Q,E):
 ---------------
 A :1...9            ( 2.00    -1.0338)  ( 2.00    -0.9943)  ( 2.00    -0.5643)  ( 2.00    -0.5496)
                     ( 2.00    -0.5433)  ( 2.00    -0.4279)  ( 2.00    -0.3667)  ( 2.00    -0.3365)
                     ( 0.00    -0.0410)

 CYCLE    6
  SDIIS (wt  0.999):  0.0035  0.0129  0.1065  0.3259  0.5512
 A-DIIS (wt  0.001):  0.0000  0.0000  0.0000  0.0605  0.9395
  DIIS coefficients:  0.0035  0.0129  0.1064  0.3257  0.5515
 SCF Error: norm([F,P])=      0.004013100563, max([F,P])=      0.001079453792
 orbitals (Q,E):
 ---------------
 A :1...9            ( 2.00    -1.0335)  ( 2.00    -0.9938)  ( 2.00    -0.5640)  ( 2.00    -0.5492)
                     ( 2.00    -0.5431)  ( 2.00    -0.4276)  ( 2.00    -0.3665)  ( 2.00    -0.3360)
                     ( 0.00    -0.0409)

 CYCLE    7
  SDIIS (wt  1.000): -0.0005 -0.0003  0.0041  0.0391  0.0985  0.8591
  DIIS coefficients: -0.0005 -0.0003  0.0041  0.0391  0.0985  0.8591
 SCF Error: norm([F,P])=      0.000267057931, max([F,P])=      0.000044462828
 orbitals (Q,E):
 ---------------
 A :1...9            ( 2.00    -1.0335)  ( 2.00    -0.9938)  ( 2.00    -0.5641)  ( 2.00    -0.5492)
                     ( 2.00    -0.5431)  ( 2.00    -0.4276)  ( 2.00    -0.3665)  ( 2.00    -0.3360)
                     ( 0.00    -0.0409)

 CYCLE    8
  SDIIS (wt  1.000): -0.0002 -0.0002 -0.0002  0.0082  0.0243  0.2718  0.6963
  DIIS coefficients: -0.0002 -0.0002 -0.0002  0.0082  0.0243  0.2718  0.6963
 SCF Error: norm([F,P])=      0.000041215100, max([F,P])=      0.000010158358
 orbitals (Q,E):
 ---------------
 A :1...9            ( 2.00    -1.0335)  ( 2.00    -0.9938)  ( 2.00    -0.5641)  ( 2.00    -0.5492)
                     ( 2.00    -0.5431)  ( 2.00    -0.4276)  ( 2.00    -0.3665)  ( 2.00    -0.3360)
                     ( 0.00    -0.0409)

 CYCLE    9
  SDIIS (wt  1.000): -0.0000 -0.0000 -0.0001  0.0009  0.0033  0.0359  0.1190  0.8410
  DIIS coefficients: -0.0000 -0.0000 -0.0001  0.0009  0.0033  0.0359  0.1190  0.8410
 SCF Error: norm([F,P])=      0.000003041522, max([F,P])=      0.000000630452
 orbitals (Q,E):
 ---------------
 A :1...9            ( 2.00    -1.0335)  ( 2.00    -0.9938)  ( 2.00    -0.5641)  ( 2.00    -0.5492)
                     ( 2.00    -0.5431)  ( 2.00    -0.4276)  ( 2.00    -0.3665)  ( 2.00    -0.3360)
                     ( 0.00    -0.0409)

 SCF CONVERGED
 cosmo_calcen: 0.5 (esolb+esolc) (Hartrees) =   -0.122832

 Solvation energy (screening term,uncorrected) =    -77.078109 kcal/mol

 Solvation energy (dispersion and cavitation terms) =      0.486800 kcal/mol
 Solvation Energy Contributions (Hartrees)
          esola   esolb+esolc
     0.12283177   -0.24566355
 esol last cycle   -0.12283177

 CYCLE   10
 *** Using FIT density in Focky
  SDIIS (wt  1.000): -0.0000 -0.0000 -0.0000  0.0001  0.0004  0.0044  0.0176  0.1926  0.7849
  DIIS coefficients: -0.0000 -0.0000 -0.0000  0.0001  0.0004  0.0044  0.0176  0.1926  0.7849
 SCF Error: norm([F,P])=      0.000000447090, max([F,P])=      0.000000096757
 orbitals (Q,E):
 ---------------
 A :1...18           ( 2.00    -1.0335)  ( 2.00    -0.9938)  ( 2.00    -0.5641)  ( 2.00    -0.5492)
                     ( 2.00    -0.5431)  ( 2.00    -0.4276)  ( 2.00    -0.3665)  ( 2.00    -0.3360)
                     ( 0.00    -0.0409)  ( 0.00     0.0042)  ( 0.00     0.0463)  ( 0.00     0.0516)
                     ( 0.00     0.1062)  ( 0.00     0.1809)  ( 0.00     0.1935)  ( 0.00     0.2009)
                     ( 0.00     0.2161)  ( 0.00     0.2340)
 cosmo_calcen: 0.5 (esolb+esolc) (Hartrees) =   -0.122832

 Solvation energy (screening term,uncorrected) =    -77.078108 kcal/mol

 Solvation energy (dispersion and cavitation terms) =      0.486800 kcal/mol
 Solvation Energy Contributions (Hartrees)
          esola   esolb+esolc
     0.12283177   -0.24566354
 esol last cycle   -0.12283177


 Fit test: (difference of exact and fit density, squared integrated, result summed over spins)
         SCF:                                          0.00002410828872

 Gross Charges per Atom (Z minus electrons)
 ==========================================
            -0.5135    0.3286    0.4331    0.4274   -0.4279    0.3718    0.3805
 Net Total:  1.00000000



 =================================================================
 M U L T I P O L E   D E R I V E D   C H A R G E   A N A L Y S I S
 =================================================================

 See: M. Swart, P.Th. van Duijnen, J.G. Snijders, J.Comput.Chem., (2001), p. 79-88.

 --------------------------------------- 
 Multipole derived atomic charges (a.u.)
 --------------------------------------- 

        Atom    Level:     MDC-m        MDC-d        MDC-q
 ---------------------------------------------------------
     1     O            0.076935    -0.458045    -0.199016
     2     H            0.139491     0.304815     0.071063
     3     H            0.195493     0.405729     0.329862
     4     H            0.200113     0.432281     0.344815
     5     O            0.013677    -0.525610    -0.215633
     6     H            0.187797     0.425499     0.357584
     7     H            0.186496     0.415331     0.311326
 *** Using NEW gradient routines ***


 Geometry CYCLE 5
 ==============

 Energy gradients wrt nuclear displacements
 ==========================================

     Atom      Cartesian (a.u./angstrom)
                 X         Y         Z
 ----------------------------------------
     1 O     0.006853  0.009243  0.000718
     2 H    -0.016676 -0.001783  0.015486
     3 H    -0.004840 -0.007384 -0.008395
     4 H     0.002056 -0.001960 -0.001353
     5 O     0.002679  0.006658 -0.015771
     6 H     0.004616 -0.002676  0.004410
     7 H     0.005313 -0.002098  0.004905
 ----------------------------------------

 dE(predicted):    -0.83805E-02, dE(actual):    -0.11936E-01, Trust radius:    1.058301, all in a.u.
 
----------------------------------------------------------------------
Geometry Convergence after Step   5       (Hartree/Angstrom,Angstrom)
----------------------------------------------------------------------
current energy                               -1.01972805 Hartree
energy change                      -0.01193563     0.00100000    F
constrained gradient max            0.01667608     0.00100000    F
constrained gradient rms            0.00761310     0.00066667    F
gradient max                        0.01667608
gradient rms                        0.00761310
cart. step max                      0.07028835     0.01000000    F
cart. step rms                      0.03323642     0.00666667    F
 


 Coordinates (Cartesian)
 =======================

     Atom                    bohr                                 angstrom                 Geometric Variables
                   X           Y           Z              X           Y           Z       (0:frozen, *:LT par.)
 --------------------------------------------------------------------------------------------------------------
     1 O      -1.201240    3.277528    4.169598      -0.635669    1.734393    2.206456      1       2       3
     2 H      -2.523178    1.908675    2.943632      -1.335208    1.010027    1.557703      4       5       6
     3 H       0.386103    2.305853    4.184762       0.204317    1.220205    2.214481      7       8       9
     4 H      -0.815209    4.788496    3.159221      -0.431390    2.533963    1.671788     10      11      12
     5 O      -3.325699    0.211991    1.429476      -1.759884    0.112181    0.756446     13      14      15
     6 H      -5.091111   -0.307305    1.324323      -2.694100   -0.162619    0.700801     16      17      18
     7 H      -2.623908    0.347540   -0.270372      -1.388512    0.183910   -0.143075     19      20      21
 --------------------------------------------------------------------------------------------------------------

 Number of elements of the density matrix on this node (used, total):       211      2346



 ===========================================
 Numerical Integration : Fuzzy Cells (Becke)
 ===========================================
  
 Becke grid quality: GOOD           
  
 Lebedev angular grid order:             min:  11 max:  31
 Nr. of radial points:                   min:  54 max:  58

 Total nr. of points:      83543
 Nr. of blocks:              653
 Block length:               128
 Nr. of dummy points:         41


 Test of Precision of the Numerical Integration Grid
 ===================================================

 Integral of the Total Core Density:                   4.00000027524000
 Relative Error:                                       6.881E-08


 -------------------------------------------
  COSMO surface
  Area             =          262.898
  Volume           =          342.668
  Number of Points =          744
 -------------------------------------------



 ========================
 Density Fitting (zlmFit)
 ========================
  
 ZlmFit Fit Quality: GOOD           
  
 Max L-expansion:                        min:   7 max:   8
 Nr. of radial interpolation points:     min:  72 max:  84



 =====
 S C F  ***  ScaSCF  ***
 =====
  
 Initial density matrix is taken from previous geometry

 CYCLE    1
 SCF Error: norm([F,P])=      0.100831723683, max([F,P])=      0.023562802914
 orbitals (Q,E):
 ---------------
 A :1...18           ( 2.00    -1.2551)  ( 2.00    -1.2199)  ( 2.00    -0.7857)  ( 2.00    -0.7743)
                     ( 2.00    -0.7649)  ( 2.00    -0.6473)  ( 2.00    -0.5872)  ( 2.00    -0.5572)
                     ( 0.00    -0.2548)  ( 0.00    -0.2066)  ( 0.00    -0.1637)  ( 0.00    -0.1519)
                     ( 0.00    -0.0865)  ( 0.00    -0.0366)  ( 0.00    -0.0211)  ( 0.00     0.0001)
                     ( 0.00     0.0095)  ( 0.00     0.0149)

 CYCLE    2
  SDIIS (wt  0.000):  0.4210  0.5790
 A-DIIS (wt  1.000):  0.0000  1.0000
  DIIS coefficients:  0.0000  1.0000
 SCF Error: norm([F,P])=      0.079214186971, max([F,P])=      0.026006083888
 orbitals (Q,E):
 ---------------
 A :1...9            ( 2.00    -1.0364)  ( 2.00    -0.9937)  ( 2.00    -0.5643)  ( 2.00    -0.5495)
                     ( 2.00    -0.5401)  ( 2.00    -0.4324)  ( 2.00    -0.3771)  ( 2.00    -0.3364)
                     ( 0.00    -0.0414)

 CYCLE    3
  SDIIS (wt  0.000):  0.2026  0.4811  0.3163
 A-DIIS (wt  1.000):  0.0000  0.3283  0.6717
  DIIS coefficients:  0.0000  0.3283  0.6717
 SCF Error: norm([F,P])=      0.091216666448, max([F,P])=      0.025908116651
 orbitals (Q,E):
 ---------------
 A :1...9            ( 2.00    -1.0219)  ( 2.00    -0.9927)  ( 2.00    -0.5555)  ( 2.00    -0.5449)
                     ( 2.00    -0.5341)  ( 2.00    -0.4194)  ( 2.00    -0.3627)  ( 2.00    -0.3351)
                     ( 0.00    -0.0401)

 CYCLE    4
  SDIIS (wt  0.768):  0.1456  0.4514  0.4030
 A-DIIS (wt  0.232):  0.0000  0.4627  0.5373
[...]
    3.H          0.466  -0.167   0.129        -0.014   0.004  -0.003        -0.648   0.202  -0.156
    4.H          0.026   0.445  -0.225         0.002   0.013  -0.007         0.071   0.631  -0.326
    5.O          0.022  -0.005   0.027         0.055  -0.000  -0.045        -0.001  -0.000   0.001
    6.H         -0.495   0.049   0.039        -0.691   0.081   0.023         0.014  -0.002  -0.001
    7.H          0.142   0.042  -0.464        -0.176  -0.075   0.688         0.004   0.002  -0.015




 List of All Frequencies:


 Intensities
 ===========

               Frequency       Dipole Strength        Absorption Intensity (degeneracy not counted)
                 cm-1           1e-40 esu2 cm2          km/mole
              ----------          ----------          ----------
             -305.027234         1089.640646          -83.310546
              375.739593         1819.058224          171.321406
              386.811670          679.089421           65.842241
              588.734347           17.861440            2.635809
              591.169960         1233.180959          182.733107
              605.372231          512.556012           77.775336
              905.597782        19013.192114         4315.871013
             1403.791128          634.175198          223.146365
             1461.314833         1201.422808          440.065918
             1604.478352            7.944225            3.194946
             1629.896450         1032.825344          421.953866
             3592.163674          183.989152          165.663337
             3596.939167           68.659283           61.902819
             3660.943006          316.782091          290.691049
             3662.752444          314.227687          288.489549



 ============================
 Statistical Thermal Analysis  ***  ideal gas assumed  ***
 ============================
  
 Pressure:                  1.000000 atm.
 Temperature:             298.150000 K



 Moments of Inertia [amu*bohr^2] and principal axis
 ==================================================

          11.6324        208.7598        209.6236
 ------------------------------------------------
           0.4701          0.8579         -0.2073
           0.6663         -0.4990         -0.5541
           0.5788         -0.1224          0.8062


 The rotational contribution to the molecular entropy includes
 a term, dependent on the symmetry number sigma. The results 
 reported below were computed using sigma = 1, determined from
 the point group symmetry of the input geometry (NOSYM). 
 If this is not the correct symmetry, try symmetrizing the molecule before
 running the calculation (note: linear molecules should be aligned along one
 of the Cartesian axes).
 Contributions from frequencies below 20 1/cm are not included in
 the vibrational sums. Their contributions, if any, are reported separately.


     Temp                                                       Transl     Rotat    Vibrat     Total
     ----                                                       ------     -----    ------     -----

     298.15   Entropy (cal/mole-K):                             36.757    20.859     3.626    61.242
              Internal Energy (Kcal/mole):                       0.889     0.889    35.167    36.944
              Constant Volume Heat Capacity (cal/mole-K):        2.981     2.981     6.929    12.890

              Summary of energy terms
                                                   hartree              eV         kcal/mol           kJ/mol
                                      --------------------     -----------       ----------      -----------
              Bond Energy:              -1.027322182632017        -27.9549          -644.65         -2697.23
              Internal Energy:           0.058874552068716          1.6021            36.94           154.58
              pV/n = RT:                 0.000944186013486          0.0257             0.59             2.48
              Enthalpy H:               -0.967503444549815        -26.3271          -607.12         -2540.18
              -T*S:                     -0.029098056280199         -0.7918           -18.26           -76.40
              Gibbs free energy:        -0.996601500830014        -27.1189          -625.38         -2616.58
 

 ***************************************************************************************************
 


====================================================================
*** DONE CALCULATING ANALYTICAL SECOND DERIVATIVES OF THE ENERGY ***
====================================================================




 ===========================================================
 SCAN POTENTIAL ENERGY SURFACE ALONG A RANGE OF NORMAL MODES  ***  with IR intensities  ***
 ===========================================================
  

 Symmetry has been reset to default with TOL= 0.000001000000

 RANGE OF FREQUENCIES: from  -1000.000 to      0.000



 ===================
 Vibration symmetry:  ***  A  ***
 ===================
  
 Total number of frequencies of this symmetry:    15
 Frequencies, cm^(-1):
    -305.027     375.740     386.812     588.734     591.170     605.372     905.598    1403.791
    1461.315    1604.478    1629.896    3592.164    3596.939    3660.943    3662.752
 Number of frequencies in the requested range:     1
1
 ***************************************************************************************************



                                      ****************************************
                                      *  B U I L D : (Fragments, Functions)  *
                                      ****************************************
  

 Total nr. of (C)SFOs (summation over all irreps) :    64

 Specify PRINT SFO in the input file to get a full list

 Nr. of SFOs for ir.rep.           A :    64



 ================================
 (Slater-type)  F U N C T I O N S  ***  (Basis and Fit)  ***
 ================================
  

 Atom Type    1  (O)
 ==============

 Valence Basis Sets:   8
 -----------------------
   1 S    7.360000
   2 S    1.720000
   2 S    2.880000
   2 S    7.580000
   2 P    1.120000
   2 P    2.080000
   2 P    4.080000
   3 D    2.000000

 Frozen Core Shells
 ------------------
    S:  1

 Atom Type    2  (H)
 ==============

 Valence Basis Sets:   4
 -----------------------
   1 S    0.690000
   1 S    0.920000
   1 S    1.580000
   2 P    1.250000


 BAS: List of all Elementary Cartesian Basis Functions
 =====================================================

 The numbering in the list below (to the right of the function characteristics) is referred
 to in print-outs of MO eigenvectors and Mulliken populations in the BAS representation
 (as contrasted to the SFO representation).

 Notes:
 1. The functions are characterized by a polynomial prefactor (powers of x,y,z and r) and
    an exponential decay factor alpha.
 2. Since the basis sets are specific for an atom TYPE, the individual functions occur on
    all atoms of that type.
 3. The word 'Core' in the left margin signals that it is a Core Function (CF) : not a
    degree of freedom in the valence set, but only used to ensure orthogonalization of
    the other valence basis functions on the frozen Core Orbitals.


 (power of) X  Y  Z  R     Alpha  on Atom
            ==========     =====     ==========

 O                                    1    2
                                  ---------------------------------------------------------------------------
    Core    0  0  0  0     7.360      1   20
            0  0  0  1     1.720      2   21
            0  0  0  1     2.880      3   22
            0  0  0  1     7.580      4   23
            1  0  0  0     1.120      5   24
            0  1  0  0     1.120      6   25
            0  0  1  0     1.120      7   26
            1  0  0  0     2.080      8   27
            0  1  0  0     2.080      9   28
            0  0  1  0     2.080     10   29
            1  0  0  0     4.080     11   30
            0  1  0  0     4.080     12   31
            0  0  1  0     4.080     13   32
            2  0  0  0     2.000     14   33
            1  1  0  0     2.000     15   34
            1  0  1  0     2.000     16   35
            0  2  0  0     2.000     17   36
            0  1  1  0     2.000     18   37
            0  0  2  0     2.000     19   38

 H                                    3    4    5    6    7
                                  ---------------------------------------------------------------------------
            0  0  0  0     0.690     39   45   51   57   63
            0  0  0  0     0.920     40   46   52   58   64
            0  0  0  0     1.580     41   47   53   59   65
            1  0  0  0     1.250     42   48   54   60   66
            0  1  0  0     1.250     43   49   55   61   67
            0  0  1  0     1.250     44   50   56   62   68

 Total number of charge fitting functions (nprimf)       414
 Total number of Cartesian basis functions (naos)         68
 Total number of Cartesian core functions  (ncos)          2



 Scanning vibration frequency    1 A =     -305.027



 -------------------------------------------
  COSMO surface
  Area             =          265.665
  Volume           =          344.282
  Number of Points =          755
 -------------------------------------------



 ========================
 Density Fitting (zlmFit)
 ========================
  
 ZlmFit Fit Quality: GOOD           
  
 Max L-expansion:                        min:   7 max:   8
 Nr. of radial interpolation points:     min:  72 max:  84
 Initial density matrix is taken from previous geometry
 cosmo_calcen: 0.5 (esolb+esolc) (Hartrees) =   -0.123231

 Solvation energy (screening term,uncorrected) =    -77.328332 kcal/mol

 Solvation energy (dispersion and cavitation terms) =      0.496772 kcal/mol
 Solvation Energy Contributions (Hartrees)
          esola   esolb+esolc
     0.12323053   -0.24646106
 esol last cycle   -0.12323053
 cosmo_calcen: 0.5 (esolb+esolc) (Hartrees) =   -0.123231

 Solvation energy (screening term,uncorrected) =    -77.328332 kcal/mol

 Solvation energy (dispersion and cavitation terms) =      0.496772 kcal/mol
 Solvation Energy Contributions (Hartrees)
          esola   esolb+esolc
     0.12323053   -0.24646105
 esol last cycle   -0.12323053


 -------------------------------------------
  COSMO surface
  Area             =          265.519
  Volume           =          344.128
  Number of Points =          753
 -------------------------------------------



 ========================
 Density Fitting (zlmFit)
 ========================
  
 ZlmFit Fit Quality: GOOD           
  
 Max L-expansion:                        min:   7 max:   8
 Nr. of radial interpolation points:     min:  72 max:  84
 Initial density matrix is taken from previous geometry
 cosmo_calcen: 0.5 (esolb+esolc) (Hartrees) =   -0.123265

 Solvation energy (screening term,uncorrected) =    -77.349851 kcal/mol

 Solvation energy (dispersion and cavitation terms) =      0.496501 kcal/mol
 Solvation Energy Contributions (Hartrees)
          esola   esolb+esolc
     0.12326482   -0.24652964
 esol last cycle   -0.12326482
 cosmo_calcen: 0.5 (esolb+esolc) (Hartrees) =   -0.123265

 Solvation energy (screening term,uncorrected) =    -77.349850 kcal/mol

 Solvation energy (dispersion and cavitation terms) =      0.496501 kcal/mol
 Solvation Energy Contributions (Hartrees)
          esola   esolb+esolc
     0.12326482   -0.24652964
 esol last cycle   -0.12326482
 Old frequency:   -305.02723, new:    192.37341
 ===================================================================================================
 Summary of a frequency scan in the requested range: 
 (One component per degenerate irreducible representations, degeneracy is not counted in the intens.)
 ---------------------------------------------------------------------------------------------------
 Frequency, cm**(-1)      Dipol moment derivatives (a.u.)      IR Intensity   Force const   Red.mass
    Old      New                X         Y         Z            km/mole          a.u.        a.u.
 ---------------------------------------------------------------------------------------------------
 Vibration symmetry: A
  -305.027   192.373          0.053     0.165    -0.230           80.918      0.00223431    1.595355
   375.740      not re-calculated (not in the required range)
   386.812      not re-calculated (not in the required range)
   588.734      not re-calculated (not in the required range)
   591.170      not re-calculated (not in the required range)
   605.372      not re-calculated (not in the required range)
   905.598      not re-calculated (not in the required range)
  1403.791      not re-calculated (not in the required range)
  1461.315      not re-calculated (not in the required range)
  1604.478      not re-calculated (not in the required range)
  1629.896      not re-calculated (not in the required range)
  3592.164      not re-calculated (not in the required range)
  3596.939      not re-calculated (not in the required range)
  3660.943      not re-calculated (not in the required range)
  3662.752      not re-calculated (not in the required range)
 ===================================================================================================



 ============================
 Statistical Thermal Analysis  ***  ideal gas assumed  ***
 ============================
  
 Pressure:                  1.000000 atm.
 Temperature:             298.150000 K



 Moments of Inertia [amu*bohr^2] and principal axis
 ==================================================

          11.6324        208.7598        209.6236
 ------------------------------------------------
           0.4701          0.8579         -0.2073
           0.6663         -0.4990         -0.5541
           0.5788         -0.1224          0.8062


 The rotational contribution to the molecular entropy includes
 a term, dependent on the symmetry number sigma. The results 
 reported below were computed using sigma = 1, determined from
 the point group symmetry of the input geometry (NOSYM). 
 If this is not the correct symmetry, try symmetrizing the molecule before
 running the calculation (note: linear molecules should be aligned along one
 of the Cartesian axes).
 Contributions from frequencies below 20 1/cm are not included in
 the vibrational sums. Their contributions, if any, are reported separately.


     Temp                                                       Transl     Rotat    Vibrat     Total
     ----                                                       ------     -----    ------     -----

     298.15   Entropy (cal/mole-K):                             36.757    20.859     5.831    63.447
              Internal Energy (Kcal/mole):                       0.889     0.889    35.801    37.579
              Constant Volume Heat Capacity (cal/mole-K):        2.981     2.981     8.779    14.741

              Summary of energy terms
                                                   hartree              eV         kcal/mol           kJ/mol
                                      --------------------     -----------       ----------      -----------
              Bond Energy:              -1.027322182632017        -27.9549          -644.65         -2697.23
              Internal Energy:           0.059885591958022          1.6296            37.58           157.23
              pV/n = RT:                 0.000944186013486          0.0257             0.59             2.48
              Enthalpy H:               -0.966492404660510        -26.2996          -606.48         -2537.53
              -T*S:                     -0.030145647799294         -0.8203           -18.92           -79.15
              Gibbs free energy:        -0.996638052459804        -27.1199          -625.40         -2616.67
 
 
 ==================================
 Memory not completely deallocated!
 ==================================
 
 Number of unbalanced allocate calls:               1
 Maximum number of active allocate calls:        1644
 
 *******************************************************************************

                             A D F   E X I T
 NORMAL TERMINATION



 =================
 Timing Statistics
 =================
  
 Total Used :                     CPU=      465.65      System=       16.17     Elapsed=      499.97

 Calls  Section                     ( Mean, Percentage )
 ---------------------------------------------------------------------------------------------------
     4  ><      ................      0.04    0.03             0.00    0.05             0.04    0.04
     1  INIT    ................      0.60    0.13             0.01    0.07             0.62    0.12
     1  GEOMET  ................      0.18    0.04             0.01    0.09             0.20    0.04
     2  FRAGM   ................      0.02    0.01             0.01    0.07             0.08    0.03
     2  INPUTA  ................      0.00    0.00             0.00    0.00             0.00    0.00
     2  ATDEN   ................      0.00    0.00             0.00    0.01             0.01    0.00
    30  MAINSY  ................      1.12    7.20             0.07   12.35             1.43    8.58
    30  SYMFIT  ................      0.00    0.03             0.00    0.03             0.03    0.17
    30  CORORT  ................      0.00    0.01             0.00    0.04             0.00    0.02
    30  SYMORB  ................      0.06    0.40             0.00    0.66             0.14    0.83
    30  CLSMAT  ................      0.08    0.51             0.00    0.75             0.08    0.50
    30  ORTHON  ................      0.07    0.48             0.00    0.78             0.08    0.48
    30  GENPT   ................      0.22    1.42             0.01    2.15             0.23    1.40
    30  PTBAS   ................      0.16    1.03             0.01    1.74             0.17    1.03
   307  FOCKY   ................      0.66   43.41             0.02   39.48             0.69   42.17
   307  FOCKTR  ................      0.00    0.20             0.00    0.76             0.00    0.21
   307  SDIIS   ................      0.00    0.30             0.00    0.68             0.01    0.83
    30  TOTEN   ................      1.10    7.10             0.02    4.05             1.14    6.83
    30  POPAN   ................      0.07    0.43             0.00    0.77             0.08    0.49
    30  DEBYE   ................      0.07    0.48             0.00    0.66             0.08    0.49
    28  INPUTE  ................      0.00    0.01             0.00    0.01             0.00    0.01
    28  SYMORE  ................      0.00    0.01             0.00    0.03             0.00    0.01
    57  ELNRGY  ................      0.31    3.80             0.00    1.69             0.32    3.65
    29  ENGRAD  ................      0.00    0.01             0.00    0.00             0.00    0.01
     1  COREPS  ................      0.56    0.12             0.01    0.09             0.58    0.12
     1  METS    ................      0.07    0.02             0.00    0.01             0.07    0.01
     1  CETS    ................      0.01    0.00             0.00    0.01             0.01    0.00
     1  POPUL   ................      0.08    0.02             0.00    0.03             0.09    0.02
     1  ENHESS  ................    152.63   32.78             5.30   32.81           159.40   31.88
     1  EXIT PROCEDURE .........      0.20    0.04             0.02    0.11             0.23    0.05


 Currently Open Files (EXIT00)
 ====================

 Unit    Access Format  Status   Type       Ident (file)
 -------------------------------------------------------
   3      SEQ    FORM   TRANSP  NORMAL      LOGFILE
                                          ( logfile )
