
 *******************************************************************************
 *                                                                             *
 *  -------------------------------------                                      *
 *   Amsterdam Density Functional  (ADF)         2019                          *
 *  -------------------------------------                                      *
 *                                               r74351 2019-04-25             *
 *                                                                             *
 *                                                                             *
 *                            =====================                            *
 *                            |                   |                            *
 *                            |     D I R A C     |                            *
 *                            |                   |                            *
 *                            =====================                            *
 *                                                                             *
 *                                                                             *
 *   Online information and documentation:  https://www.scm.com/support/       *
 *   E-mail:  support@scm.com   info@scm.com                                   *
 *                                                                             *
 *   Scientific publications using ADF results must be properly referenced     *
 *   See the User Manuals (or the web site) for recommended citations          *
 *   The terms and conditions of the End User License Agreement apply to       *
 *   the use of ADF, https://www.scm.com/license-terms/                        *
 *                                                                             *
 **********************  x86_64_linux_intel / intelmpi  ************************
 
 Licensed to: Dr. Carles Bo / Institute of Chemical Research of Catalonia ( (ICIQ) / Tarragona / Spain 2022-11-28 14:37:29
 SCM User ID: u7609
  
 DIRAC 2019  RunTime: Feb09-2023 17:52:38  Nodes: 1  Procs: 1

 Temporary files are created in /scratch/kid_0.1747044023

1
 MOLYBDENUM ATOM 3d CORE RELATIVISTIC, Point Nuc, A and c fro
 N J RN H ZN XION ANUC CLIGHT
 5000   15100.00000000197.36710137 42.00000000  0.00000000   97.905406  0.1370360E+03
  PH   PHI     EPS        DEL        DELRVR
  0.30  0.30     2500.00  0.00001000  0.00001000
 IDIRC  NC1  NDEBU NPRIN  IPUN IRCOR IWCOR
   1   300     0     0     0     0     9
   XALPHA      XLATTER      RNUC
  0.70000000  0.00000000  0.00000000 Point Charge
   XN   XL   XJ      XE          XZ      XDELL
  1.0  0.0  0.5   -1500.000       2.000     0.00000
  2.0  0.0  0.5    -325.000       2.000     0.00000
  2.0  1.0  0.5    -325.000       2.000     0.00000
  2.0  1.0  1.5    -325.000       4.000     0.00000
  3.0  0.0  0.5     -70.000       2.000     0.00000
  3.0  1.0  0.5     -70.000       2.000     0.00000
  3.0  1.0  1.5     -70.000       4.000     0.00000
  3.0  2.0  1.5     -60.000       4.000     0.00000
  3.0  2.0  2.5     -60.000       6.000     0.00000
  4.0  0.0  0.5     -10.000       2.000     0.00000
  4.0  1.0  0.5     -10.000       2.000     0.00000
  4.0  1.0  1.5     -10.000       4.000     0.00000
  4.0  2.0  1.5      -1.000       4.000     0.00000
  4.0  2.0  2.5      -1.000       1.000     0.00000
  5.0  0.0  0.5      -0.500       1.000     0.00000
 ICORP=  0  NPCL=  0  DEMP=0.00  PEPS=0.000000
 R(1)=  0.1000000E-08 D=  0.1005080E+01 RNUC=  0.0000000E+00
 converged at cycle   41  DENSITY AVERAGING    0.2400
  MAXIMUM ERROR IN R.V(R) IS   0.93203452E-05
 Q,EY,EV,EZ,ESUM,ETOT,RHO  0.420000E+02 -0.161898E+03 -0.662509E+04 -0.978397E+04 -0.242700E+04 -0.404691E+04  0.342495E-11


 DIRAC CALCULATION
1                    MOLYBDENUM ATOM 3d CORE RELATIVISTIC, Point Nuc, A and c from libtc


 EXCHANGE COEFFICIENT=  0.7000000           TAIL CORRECTION=  0.           NUCLEAR RADIUS=  0.000E+00
0                       ORBITAL    N    L    J     ELECTRONS     EIGENVALUE                DELTA OF EIGENV.

                          1S1/2  1.0  0.0  0.5     2.000       -0.7276812E+03                 0.2822496E-04
                          2S1/2  2.0  0.0  0.5     2.000       -0.1028194E+03                 0.1725465E-04
                          2P1/2  2.0  1.0  0.5     2.000       -0.9468016E+02                 0.1864325E-04
                          2P3/2  2.0  1.0  1.5     4.000       -0.9076266E+02                 0.1832345E-04
                          3S1/2  3.0  0.0  0.5     2.000       -0.1747094E+02                 0.5979346E-05
                          3P1/2  3.0  1.0  0.5     2.000       -0.1436574E+02                 0.6275079E-05
                          3P3/2  3.0  1.0  1.5     4.000       -0.1371946E+02                 0.5984426E-05
                          3D3/2  3.0  2.0  1.5     4.000       -0.8203697E+01                 0.6709395E-05
                          3D5/2  3.0  2.0  2.5     6.000       -0.8081013E+01                 0.6610438E-05
                          4S1/2  4.0  0.0  0.5     2.000       -0.2338238E+01                 0.2446887E-06
                          4P1/2  4.0  1.0  0.5     2.000       -0.1452045E+01                 0.2971982E-06
                          4P3/2  4.0  1.0  1.5     4.000       -0.1358936E+01                 0.3186552E-06
                          4D3/2  4.0  2.0  1.5     4.000       -0.1184046E+00                 0.3378248E-06
                          4D5/2  4.0  2.0  2.5     1.000       -0.1108976E+00                 0.3342679E-06
                          5S1/2  5.0  0.0  0.5     1.000       -0.1320069E+00                 0.9757102E-07


                                        NUCLEAR CHARGE=   42.000000
                            INTEGRAL OF CHARGE DENSITY=   42.000000
                           SUM OF THE ORBITAL ENERGIES=  -2426.9970
                                          TOTAL ENERGY=  -4046.9128
                                        KINETIC ENERGY=   4198.0886
                             NUCLEAR ATTRACTION ENERGY=  -9783.9685
                             ELECTRON REPULSION ENERGY=   1660.3903
                                       EXCHANGE ENERGY=   -121.4232

 *******************************************************************************

                             D I R A C   E X I T
 NORMAL TERMINATION



 =================
 Timing Statistics
 =================
  
 Total Used :                     CPU=        0.36      System=        0.00     Elapsed=        0.38

 Calls  Section                     ( Mean, Percentage )
 ---------------------------------------------------------------------------------------------------
     2  ><      ................      0.00    0.00             0.00    0.00             0.00    0.00
     1  EXIT PROCEDURE .........      0.36  100.00             0.00  100.00             0.38  100.00


 Currently Open Files (EXIT00)
 ====================

 Unit    Access Format  Status   Type       Ident (file)
 -------------------------------------------------------
   3      SEQ    FORM   TRANSP  NORMAL      LOGFILE
                                          ( logfile )
 
Create Mo   file=TZP-Mo.3d
XC
  GGA PBE
End
relativistic ZORA
Corepotentials t12.rel
End

 *******************************************************************************
 *                                                                             *
 *  -------------------------------------                                      *
 *   Amsterdam Density Functional  (ADF)         2019                          *
 *  -------------------------------------                                      *
 *                                               r74351 2019-04-25             *
 *                                                                             *
 *                                                                             *
 *                              =================                              *
 *                              |               |                              *
 *                              |     A D F     |                              *
 *                              |               |                              *
 *                              =================                              *
 *                                                                             *
 *                                                                             *
 *   Online information and documentation:  https://www.scm.com/support/       *
 *   E-mail:  support@scm.com   info@scm.com                                   *
 *                                                                             *
 *   Scientific publications using ADF results must be properly referenced     *
 *   See the User Manuals (or the web site) for recommended citations          *
 *   The terms and conditions of the End User License Agreement apply to       *
 *   the use of ADF, https://www.scm.com/license-terms/                        *
 *                                                                             *
 **********************  x86_64_linux_intel / intelmpi  ************************
 
 Licensed to: Dr. Carles Bo / Institute of Chemical Research of Catalonia ( (ICIQ) / Tarragona / Spain 2022-11-28 14:37:29
 SCM User ID: u7609
  
 ADF 2019  RunTime: Feb09-2023 17:52:38  Nodes: 1  Procs: 1

 Temporary files are created in /scratch/kid_0.40645860

 Molybdenum (TZP, 3d frozen)



 ===========================
 A T T A C H E D   F I L E S
 ===========================
  
 CREATE - Data File:    TZP-Mo.3d
                        Molybdenum (TZP, 3d frozen)
 Core Potentials:
         file : t12.rel



 ===============================
 M O D E L   P A R A M E T E R S
 ===============================
  
 DENSITY FUNCTIONAL POTENTIAL (scf)
    LDA:                               PW92                                    == Not Default ==
    Gradient Corrections:              PBEc PBEx                               == Not Default ==

 SPIN  (restricted / unrestr.)
    Molecule:                          Restricted                               

 OTHER ASPECTS
    Relativistic Corrections:          scalar (ZORA,MAPA)                      == Not Default ==

    Nuclear Charge Density Model:      Point Charge Nuclei                      
    Core Treatment:                    Frozen Orbital(s)                        

    Hyperfine or Zeeman Interaction:   ---                                      



 =====================================
 S Y M M E T R Y ,   E L E C T R O N S
 =====================================
  
 Symmetry: ATOM

 Irreducible Representations, including subspecies
 -------------------------------------------------
 S
 P:x  P:y  P:z
 D:z2  D:x2-y2  D:xy  D:xz  D:yz
 F:z3  F:z  F:xyz  F:z2x  F:z2y  F:x  F:y


 Configuration of Valence Electrons
 ==================================

          Occupation Numbers
          -------------------------------------------------
 S        2 1
 P        6
 D        5
 F        0
          -------------------------------------------------

 Total:   14

 Net Charge: 0 (Nuclei minus Electrons)

 Preset values for MO occupations will be applied through SCF cycle no. 1000000
 Thereafter, the program will assign electrons to MOs that are spatially
 similar to the occupied MOs in a "reference" cycle ("KeepOrbitals").
 The reference cycle is always the PREVIOUS cycle: it will evolve with
 the SCF procedure.



 ================================
 (Slater-type)  F U N C T I O N S  ***  (Basis and Fit)  ***
 ================================
  

 Atom Type    1  (Mo)
 ==============

 Valence Basis Sets:  18
 -----------------------
   1 S   30.500000
   2 S   17.750000
   3 S    8.350000
   2 P   18.600000
   3 P    8.700000
   3 D   10.050000
   4 S    5.100000
   4 S    3.300000
   5 S    2.150000
   5 S    1.350000
   5 S    0.870000
   4 P    4.950000
   4 P    3.300000
   4 P    2.300000
   4 D    3.500000
   4 D    1.850000
   4 D    0.970000
   5 P    1.350000

 Frozen Core Shells
 ------------------
    S:  3
    P:  2
    D:  1


 BAS: List of all Elementary Cartesian Basis Functions
 =====================================================

 The numbering in the list below (to the right of the function characteristics) is referred
 to in print-outs of MO eigenvectors and Mulliken populations in the BAS representation
 (as contrasted to the SFO representation).

 Notes:
 1. The functions are characterized by a polynomial prefactor (powers of x,y,z and r) and
    an exponential decay factor alpha.
 2. Since the basis sets are specific for an atom TYPE, the individual functions occur on
    all atoms of that type.
 3. The word 'Core' in the left margin signals that it is a Core Function (CF) : not a
    degree of freedom in the valence set, but only used to ensure orthogonalization of
    the other valence basis functions on the frozen Core Orbitals.


 (power of) X  Y  Z  R     Alpha  on Atom
            ==========     =====     ==========

 Mo                                   1
                                  ---------------------------------------------------------------------------
    Core    0  0  0  0    30.500      1
    Core    0  0  0  1    17.750      2
    Core    0  0  0  2     8.350      3
    Core    1  0  0  0    18.600      4
    Core    0  1  0  0    18.600      5
    Core    0  0  1  0    18.600      6
    Core    1  0  0  1     8.700      7
    Core    0  1  0  1     8.700      8
    Core    0  0  1  1     8.700      9
    Core    2  0  0  0    10.050     10
    Core    1  1  0  0    10.050     11
    Core    1  0  1  0    10.050     12
    Core    0  2  0  0    10.050     13
    Core    0  1  1  0    10.050     14
    Core    0  0  2  0    10.050     15
            0  0  0  3     5.100     16
            0  0  0  3     3.300     17
            0  0  0  4     2.150     18
            0  0  0  4     1.350     19
            0  0  0  4     0.870     20
            1  0  0  2     4.950     21
            0  1  0  2     4.950     22
            0  0  1  2     4.950     23
            1  0  0  2     3.300     24
            0  1  0  2     3.300     25
            0  0  1  2     3.300     26
            1  0  0  2     2.300     27
            0  1  0  2     2.300     28
            0  0  1  2     2.300     29
            2  0  0  1     3.500     30
            1  1  0  1     3.500     31
            1  0  1  1     3.500     32
            0  2  0  1     3.500     33
            0  1  1  1     3.500     34
            0  0  2  1     3.500     35
            2  0  0  1     1.850     36
            1  1  0  1     1.850     37
            1  0  1  1     1.850     38
            0  2  0  1     1.850     39
            0  1  1  1     1.850     40
            0  0  2  1     1.850     41
            2  0  0  1     0.970     42
            1  1  0  1     0.970     43
            1  0  1  1     0.970     44
            0  2  0  1     0.970     45
            0  1  1  1     0.970     46
            0  0  2  1     0.970     47
            1  0  0  3     1.350     48
            0  1  0  3     1.350     49
            0  0  1  3     1.350     50

 Total number of charge fitting functions (nprimf)       230
 Total number of Cartesian basis functions (naos)         50
 Total number of Cartesian core functions  (ncos)         15



 BAS: List of all Elementary Cartesian Basis Functions
 =====================================================

 The numbering in the list below (to the right of the function characteristics) is referred
 to in print-outs of MO eigenvectors and Mulliken populations in the BAS representation
 (as contrasted to the SFO representation).

 Notes:
 1. The functions are characterized by a polynomial prefactor (powers of x,y,z and r) and
    an exponential decay factor alpha.
 2. Since the basis sets are specific for an atom TYPE, the individual functions occur on
    all atoms of that type.
 3. The word 'Core' in the left margin signals that it is a Core Function (CF) : not a
    degree of freedom in the valence set, but only used to ensure orthogonalization of
    the other valence basis functions on the frozen Core Orbitals.


 (power of) X  Y  Z  R     Alpha  on Atom
            ==========     =====     ==========

 Mo                                   1
                                  ---------------------------------------------------------------------------
    Core    0  0  0  0    30.500      1
    Core    0  0  0  1    17.750      2
    Core    0  0  0  2     8.350      3
    Core    1  0  0  0    18.600      4
    Core    0  1  0  0    18.600      5
    Core    0  0  1  0    18.600      6
    Core    1  0  0  1     8.700      7
    Core    0  1  0  1     8.700      8
    Core    0  0  1  1     8.700      9
    Core    2  0  0  0    10.050     10
    Core    1  1  0  0    10.050     11
    Core    1  0  1  0    10.050     12
    Core    0  2  0  0    10.050     13
    Core    0  1  1  0    10.050     14
    Core    0  0  2  0    10.050     15
            0  0  0  3     5.100     16
            0  0  0  3     3.300     17
            0  0  0  4     2.150     18
            0  0  0  4     1.350     19
            0  0  0  4     0.870     20
            1  0  0  2     4.950     21
            0  1  0  2     4.950     22
            0  0  1  2     4.950     23
            1  0  0  2     3.300     24
            0  1  0  2     3.300     25
            0  0  1  2     3.300     26
            1  0  0  2     2.300     27
            0  1  0  2     2.300     28
            0  0  1  2     2.300     29
            2  0  0  1     3.500     30
            1  1  0  1     3.500     31
            1  0  1  1     3.500     32
            0  2  0  1     3.500     33
            0  1  1  1     3.500     34
            0  0  2  1     3.500     35
            2  0  0  1     1.850     36
            1  1  0  1     1.850     37
            1  0  1  1     1.850     38
            0  2  0  1     1.850     39
            0  1  1  1     1.850     40
            0  0  2  1     1.850     41
            2  0  0  1     0.970     42
            1  1  0  1     0.970     43
            1  0  1  1     0.970     44
            0  2  0  1     0.970     45
            0  1  1  1     0.970     46
            0  0  2  1     0.970     47
            1  0  0  3     1.350     48
            0  1  0  3     1.350     49
            0  0  1  3     1.350     50
1
 ***************************************************************************************************



                                              ***********************
                                              *  T E C H N I C A L  *
                                              ***********************
  



 =============================================================
 P A R A L L E L I Z A T I O N  and  V E C T O R I Z A T I O N
 =============================================================
  
 Nr of parallel processes:                                1
 Maximum vector length in NumInt loops:                 128



 =====================
 S C F   U P D A T E S
 =====================
  
 Max. nr. of cycles:                               300
 Convergence criterion:                              0.0000000100
   secondary criterion:                              0.0000000100

 Mix parameter (when DIIS does not apply):           0.2000000000
 Special mix parameter for the first cycle:          1.0000000000
 Mixed ADIIS+SDIIS will be used                  
    Max number of expansion vectors:                10
    Pure ADIIS when Max([F,P]) is above              0.1000000000
    Pure SDIIS when Max([F,P]) is below              0.0010000000
 Automatic ElectronSmearing (in case of problematic SCF convergence) disabled



 =================
 P R E C I S I O N  ***  (General: NumInt, NeglectFunctionTails, ...)  ***
 =================
  

 NumInt:           Target precision:                12.0000000000
 -------           Initial precision:               10.0000000000
                   Min. precision (optimization):   10.0000000000

 Neglect Functions:          Basis functions:        0.1000000000E-13
 ------------------          Fit functions:          0.1000000000E-13



 ===========================
 L I N E A R   S C A L I N G
 ===========================
  

 Cut-off radii density fit:                        0.1000000000E-97
 Overlap cut-off criterion AO matrix elements:     0.1000000000E-97
 Cut-offs for Coulomb potential and fitted density:0.1000000000E-97
 Cut-off criterion for Coulomb multipole terms:    0.1000000000E-97
 Progressive Convergence parameter:                 0.000000000    
1
 ***************************************************************************************************



                                            ***************************
                                            *  C O M P U T A T I O N  *
                                            ***************************
  

 Number of elements of the density matrix on this node (used, total):      1275      1275



 ===========================================
 Numerical Integration : Fuzzy Cells (Becke)
 ===========================================
  
 Becke grid quality: VERYGOOD       
  
 Lebedev angular grid order:             min:  13 max:  41
 Nr. of radial points:                   min: 106 max: 106

 Total nr. of points:        106
 Nr. of blocks:                1
 Block length:               106
 Nr. of dummy points:          0


 Test of Precision of the Numerical Integration Grid
 ===================================================

 Integral of the Total Core Density:                  28.00000000969493
 Relative Error:                                       3.462E-10



 ========================
 Density Fitting (zlmFit)
 ========================
  
 ZlmFit Fit Quality: VERYGOOD       
  
 Max L-expansion:                        min:   0 max:   0
 Nr. of radial interpolation points:     min: 230 max: 230



 =====
 S C F  ***  ScaSCF  ***
 =====
  

 CYCLE    1
 SCF Error: norm([F,P])=      0.000000000000, max([F,P])=      0.000000000000
 orbitals (Q,E):
 ---------------
 S :1...5            ( 2.00   -11.6814)  ( 1.00    -6.3532)  ( 0.00    -3.9976)  ( 0.00    -2.6589)
                     ( 0.00    -1.7000)
 P :1...4            ( 6.00   -10.5018)  ( 0.00    -5.8212)  ( 0.00    -3.6400)  ( 0.00    -2.5070)
 D :1...3            ( 5.00    -8.4786)  ( 0.00    -4.5701)  ( 0.00    -2.4939)

 CYCLE    2
  SDIIS (wt  0.000):  1.0000  0.0000
 A-DIIS (wt  1.000):  0.1286  0.8714
  DIIS coefficients:  0.1286  0.8714
 SCF Error: norm([F,P])=      7.148790686087, max([F,P])=      2.364314963741
 orbitals (Q,E):
 ---------------
 S :1...3            ( 2.00    -1.8793)  ( 1.00    -0.4080)  ( 0.00    -0.1761)
 P :1...2            ( 6.00    -1.0989)  ( 0.00    -0.2723)
 D :1...2            ( 5.00    -0.2758)  ( 0.00    -0.0263)

 CYCLE    3
  SDIIS (wt  0.000):  0.3519  0.6481
 A-DIIS (wt  1.000):  0.2376  0.7624
  DIIS coefficients:  0.2376  0.7624
 SCF Error: norm([F,P])=      4.212278243430, max([F,P])=      1.568530983970
 orbitals (Q,E):
 ---------------
 S :1...3            ( 2.00    -3.0898)  ( 1.00    -0.3551)  ( 0.00    -0.0106)
 P :1...2            ( 6.00    -2.0988)  ( 0.00    -0.1560)
 D :1...2            ( 5.00    -0.6568)  ( 0.00     0.0486)

 CYCLE    4
  SDIIS (wt  0.000): -0.0802  0.2380  0.8422
 A-DIIS (wt  1.000):  0.0000  0.2131  0.7869
  DIIS coefficients:  0.0000  0.2131  0.7869
 SCF Error: norm([F,P])=      1.823310320672, max([F,P])=      0.621470068658
 orbitals (Q,E):
 ---------------
 S :1...3            ( 2.00    -2.1329)  ( 1.00    -0.1098)  ( 0.00     0.0530)
 P :1...2            ( 6.00    -1.2112)  ( 0.00     0.0122)
 D :1...2            ( 5.00    -0.0245)  ( 0.00     0.1765)

 CYCLE    5
  SDIIS (wt  0.000): -0.0246 -0.0857  0.3373  0.7730
 A-DIIS (wt  1.000):  0.0000  0.0000  0.3000  0.7000
  DIIS coefficients:  0.0000  0.0000  0.3000  0.7000
 SCF Error: norm([F,P])=      1.058828219057, max([F,P])=      0.362553371378
 orbitals (Q,E):
 ---------------
 S :1...3            ( 2.00    -2.5065)  ( 1.00    -0.1954)  ( 0.00     0.0191)
 P :1...2            ( 6.00    -1.5530)  ( 0.00    -0.0541)
 D :1...2            ( 5.00    -0.2373)  ( 0.00     0.1039)

 CYCLE    6
  SDIIS (wt  0.000):  0.0107 -0.0168 -0.1404  0.2233  0.9231
 A-DIIS (wt  1.000):  0.0000  0.0000  0.0000  0.1685  0.8315
  DIIS coefficients:  0.0000  0.0000  0.0000  0.1685  0.8315
 SCF Error: norm([F,P])=      0.386302370665, max([F,P])=      0.125926487743
 orbitals (Q,E):
 ---------------
 S :1...3            ( 2.00    -2.2911)  ( 1.00    -0.1348)  ( 0.00     0.0380)
 P :1...2            ( 6.00    -1.3509)  ( 0.00    -0.0079)
 D :1...2            ( 5.00    -0.0948)  ( 0.00     0.1449)

 CYCLE    7
  SDIIS (wt  0.044): -0.0008  0.0043  0.0172 -0.1816  0.1952  0.9657
 A-DIIS (wt  0.956):  0.0000  0.0000  0.0000  0.0000  0.3526  0.6474
  DIIS coefficients: -0.0000  0.0002  0.0008 -0.0081  0.3456  0.6615
 SCF Error: norm([F,P])=      0.284734623559, max([F,P])=      0.095612429384
 orbitals (Q,E):
 ---------------
 S :1...3            ( 2.00    -2.3844)  ( 1.00    -0.1556)  ( 0.00     0.0295)
 P :1...2            ( 6.00    -1.4366)  ( 0.00    -0.0239)
 D :1...2            ( 5.00    -0.1494)  ( 0.00     0.1281)

 CYCLE    8
  SDIIS (wt  0.772):  0.0000  0.0002 -0.0034 -0.0193  0.0076  0.2482  0.7667
 A-DIIS (wt  0.228):  0.0000  0.0000  0.0000  0.0000  0.0000  0.0289  0.9711
  DIIS coefficients:  0.0000  0.0002 -0.0026 -0.0149  0.0058  0.1982  0.8133
 SCF Error: norm([F,P])=      0.070427042512, max([F,P])=      0.023581757016
 orbitals (Q,E):
 ---------------
 S :1...3            ( 2.00    -2.3580)  ( 1.00    -0.1494)  ( 0.00     0.0311)
 P :1...2            ( 6.00    -1.4122)  ( 0.00    -0.0192)
 D :1...2            ( 5.00    -0.1332)  ( 0.00     0.1325)

 CYCLE    9
  SDIIS (wt  0.929): -0.0000 -0.0000  0.0002  0.0020 -0.0040 -0.0349  0.1906  0.8461
 A-DIIS (wt  0.071):  0.0000  0.0000  0.0000  0.0000  0.0000  0.0000  0.1077  0.8923
  DIIS coefficients: -0.0000 -0.0000  0.0002  0.0018 -0.0037 -0.0324  0.1847  0.8494
 SCF Error: norm([F,P])=      0.024021634807, max([F,P])=      0.008070140854
 orbitals (Q,E):
 ---------------
 S :1...3            ( 2.00    -2.3650)  ( 1.00    -0.1511)  ( 0.00     0.0305)
 P :1...2            ( 6.00    -1.4187)  ( 0.00    -0.0205)
 D :1...2            ( 5.00    -0.1375)  ( 0.00     0.1313)

 CYCLE   10
  SDIIS (wt  1.000):  0.0000  0.0000 -0.0000 -0.0003  0.0006  0.0038 -0.0155  1.0114
  DIIS coefficients:  0.0000  0.0000 -0.0000 -0.0003  0.0006  0.0038 -0.0155  1.0114
 SCF Error: norm([F,P])=      0.001691537232, max([F,P])=      0.000569379855
 orbitals (Q,E):
 ---------------
 S :1...3            ( 2.00    -2.3645)  ( 1.00    -0.1510)  ( 0.00     0.0305)
 P :1...2            ( 6.00    -1.4182)  ( 0.00    -0.0204)
 D :1...2            ( 5.00    -0.1372)  ( 0.00     0.1314)

 CYCLE   11
  SDIIS (wt  1.000):  0.0000 -0.0000  0.0000  0.0002 -0.0008 -0.0102 -0.0868  1.0976
  DIIS coefficients:  0.0000 -0.0000  0.0000  0.0002 -0.0008 -0.0102 -0.0868  1.0976
 SCF Error: norm([F,P])=      0.000000816018, max([F,P])=      0.000000266639
 orbitals (Q,E):
 ---------------
 S :1...3            ( 2.00    -2.3645)  ( 1.00    -0.1510)  ( 0.00     0.0305)
 P :1...2            ( 6.00    -1.4182)  ( 0.00    -0.0204)
 D :1...2            ( 5.00    -0.1372)  ( 0.00     0.1314)

 CYCLE   12
  SDIIS (wt  1.000): -0.0000  0.0000  0.0001  0.0011  0.0118  0.9869
  DIIS coefficients: -0.0000  0.0000  0.0001  0.0011  0.0118  0.9869
 SCF Error: norm([F,P])=      0.000000024268, max([F,P])=      0.000000008564
 orbitals (Q,E):
 ---------------
 S :1...3            ( 2.00    -2.3645)  ( 1.00    -0.1510)  ( 0.00     0.0305)
 P :1...2            ( 6.00    -1.4182)  ( 0.00    -0.0204)
 D :1...2            ( 5.00    -0.1372)  ( 0.00     0.1314)

 SCF CONVERGED

 CYCLE   13
1
 ***************************************************************************************************



                                                *******************
                                                *  R E S U L T S  *
                                                *******************
  
 *** Using FIT density in Focky
  SDIIS (wt  1.000):  0.0000  0.0000 -0.0009 -0.0131  1.0139
  DIIS coefficients:  0.0000  0.0000 -0.0009 -0.0131  1.0139
 SCF Error: norm([F,P])=      0.000000001716, max([F,P])=      0.000000000646

 Scaled ZORA Orbital Energies, per Irrep and Spin:
 =================================================
                        Occup              E (au)              E (eV)       Diff (eV) with prev. cycle
                        -----      --------------------        ------       --------------------------
 S
               1        2.000     -0.23645412461087E+01       -64.342               1.08E-08
               2        1.000     -0.15095063251582E+00        -4.108               1.52E-08
               3        0.000      0.30491108737404E-01         0.830
               4        0.000      0.39955981712578E+00        10.873
               5        0.000      0.28259043504195E+01        76.897
 P
               1        6.000     -0.14182481541156E+01       -38.592               1.24E-08
               2        0.000     -0.20381990593673E-01        -0.555
               3        0.000      0.61122831684606E+00        16.632
               4        0.000      0.40294008516846E+01       109.646
 D
               1        5.000     -0.13719857998971E+00        -3.733               1.57E-08
               2        0.000      0.13138303481334E+00         3.575
               3        0.000      0.10915573963069E+01        29.703


 Partially Occupied:
               2 S                -0.15095063251582E+00
               1 D                -0.13719857998971E+00
  
 HOMO :        1 P                -0.14182481541156E+01
 LUMO :        2 P                -0.20381990593673E-01
  


 Orbital Energies, all Irreps
 ========================================

 Irrep        no.  (spin)   Occup              E (au)                E (eV)
 ---------------------------------------------------------------------------
 S             1             2.00       -0.23645412461087E+01       -64.3424
 P             1             6.00       -0.14182481541156E+01       -38.5925
 S             2             1.00       -0.15095063251582E+00        -4.1076
 D             1             5.00       -0.13719857998971E+00        -3.7334
 P             2             0.00       -0.20381990593673E-01        -0.5546
 S             3             0.00        0.30491108737404E-01         0.8297
 D             2             0.00        0.13138303481334E+00         3.5751
 S             4             0.00        0.39955981712578E+00        10.8726
 P             3             0.00        0.61122831684606E+00        16.6324
 D             3             0.00        0.10915573963069E+01        29.7028
 S             5             0.00        0.28259043504195E+01        76.8968
 P             4             0.00        0.40294008516846E+01       109.6456


 Scaled ZORA Orbital Energies of the Core Orbitals:
 ==================================================

 (Note that the atoms are grouped by atomtype, see the labels, and may hence NOT be in input order)

 AtomType  Orbital  Atom                   E (au)                        E (eV)
 --------  -------  ----           --------------------        ----------------
 Mo          1S        1          -0.72810156987753E+03              -19812.652
             2S        1          -0.10281078869890E+03               -2797.624
             3S        1          -0.17490063510859E+02                -475.929
             2P        1          -0.91890973277880E+02               -2500.481
             3P        1          -0.13936907885645E+02                -379.243
             3D        1          -0.81284558211672E+01                -221.187



 =======================================
 M U L L I K E N   P O P U L A T I O N S
 =======================================
  
 The survey below gives for each atom:
 a) the total charge (Z minus electrons)
 b) the net spin polarization (nr of electrons spin-A minus spin-B)
 c) for each spin the atomic electron valence density (integrated) per L-value.

 Atom              Charge    Spin density          S         P         D         F
 ----              ------    ------------       ------    ------    ------    ------
 1 Mo              0.0000                       3.0000    6.0000    5.0000    0.0000

 Populations of individual BAS functions
 ----------------------------------------
 1 Mo          -0.0051  0.0033 -0.0315  0.0008  0.0008  0.0008  0.0345  0.0345  0.0345  0.0153
                0.0230  0.0230  0.0153  0.0230  0.0153  1.3114  0.7310  0.3903  0.5032  0.0973
                0.7293  0.7293  0.7293  1.1024  1.1024  1.1024  0.1310  0.1310  0.1310  0.2744
                0.4116  0.4116  0.2744  0.4116  0.2744  0.3155  0.4732  0.4732  0.3155  0.4732
                0.3155  0.0615  0.0922  0.0922  0.0615  0.0922  0.0615  0.0019  0.0019  0.0019

 Gross Charges per Atom (Z minus electrons)
 ==========================================
             0.0000
 Net Total:  0.00000000



 =======================================================================
 Electrostatic potential at the Nuclei due to electrons and other nuclei
 =======================================================================
  
         Atom                  Potential
         ----                  ---------
     1)   Mo                232.78835403
 
 
 ========================
 No memory problems found
 ========================
 
 Maximum number of active allocate calls:         389
 
 *******************************************************************************

                             A D F   E X I T
 NORMAL TERMINATION



 =================
 Timing Statistics
 =================
  
 Total Used :                     CPU=        0.67      System=        0.03     Elapsed=        0.74

 Calls  Section                     ( Mean, Percentage )
 ---------------------------------------------------------------------------------------------------
     3  ><      ................      0.00    0.60             0.00    0.00             0.00    0.58
     1  INIT    ................      0.07   10.12             0.00    0.00             0.08   10.67
     1  GEOMET  ................      0.01    1.19             0.01   37.50             0.03    3.40
     1  INPUTA  ................      0.00    0.00             0.00    0.00             0.00    0.48
     1  MAINSY  ................      0.01    1.19             0.01   25.00             0.02    2.45
     1  SYMFIT  ................      0.00    0.60             0.00    0.00             0.00    0.21
     1  CORORT  ................      0.00    0.00             0.00    0.00             0.00    0.22
     1  SYMORB  ................      0.00    0.00             0.00    0.00             0.00    0.13
     1  CLSMAT  ................      0.00    0.60             0.00    0.00             0.01    0.71
     1  ORTHON  ................      0.01    1.19             0.00    0.00             0.01    0.72
     1  GENPT   ................      0.02    2.98             0.00    0.00             0.02    2.80
     1  PTBAS   ................      0.00    0.60             0.00    0.00             0.01    0.74
    13  FOCKY   ................      0.04   67.86             0.00   25.00             0.04   63.48
    13  FOCKTR  ................      0.00    0.60             0.00    0.00             0.00    1.09
    13  SDIIS   ................      0.00    4.17             0.00   12.50             0.00    4.75
     1  COREPS  ................      0.04    5.36             0.00    0.00             0.03    4.53
     1  POPAN   ................      0.00    0.60             0.00    0.00             0.01    0.68
     1  DEBYE   ................      0.00    0.00             0.00    0.00             0.00    0.27
     1  EXIT PROCEDURE .........      0.02    2.38             0.00    0.00             0.02    2.08


 Currently Open Files (EXIT00)
 ====================

 Unit    Access Format  Status   Type       Ident (file)
 -------------------------------------------------------
   3      SEQ    FORM   TRANSP  NORMAL      LOGFILE
                                          ( logfile )

 ***************************************************************************************************
 (LOGFILE)
 <Feb09-2023> <17:52:38>  DIRAC 2019  RunTime: Feb09-2023 17:52:38  Nodes: 1  Procs: 1
 <Feb09-2023> <17:52:38>  NORMAL TERMINATION
 <Feb09-2023> <17:52:38>  END
 <Feb09-2023> <17:52:38>  ADF 2019  RunTime: Feb09-2023 17:52:38  Nodes: 1  Procs: 1
 <Feb09-2023> <17:52:38>  Molybdenum (TZP, 3d frozen)
 <Feb09-2023> <17:52:38>  RunType   : CREATE
 <Feb09-2023> <17:52:38>  Net Charge: 0 (Nuclei minus Electrons)
 <Feb09-2023> <17:52:38>  Symmetry  : ATOM
  Coordinates
    Atom         X           Y           Z   (Angstrom)
    1.Mo        0.000000    0.000000    0.000000
 <Feb09-2023> <17:52:38>  >>>> CORORT
 <Feb09-2023> <17:52:38>  >>>> CLSMAT
 <Feb09-2023> <17:52:38>  >>>> ORTHON
 <Feb09-2023> <17:52:38>  >>>> GENPT
 <Feb09-2023> <17:52:38>  Block Length= 106
 <Feb09-2023> <17:52:38>  >>>> PTBAS
 <Feb09-2023> <17:52:38>  >>>> CYCLE
 <Feb09-2023> <17:52:38>              |Error|         MaxErr       Wt(A-DIIS)
 <Feb09-2023> <17:52:38>      1      0.00000000      0.00000000
 <Feb09-2023> <17:52:38>      2      7.14879069      2.36431496    100.0
 <Feb09-2023> <17:52:38>      3      4.21227824      1.56853098    100.0
 <Feb09-2023> <17:52:38>      4      1.82331032      0.62147007    100.0
 <Feb09-2023> <17:52:38>      5      1.05882822      0.36255337    100.0
 <Feb09-2023> <17:52:39>      6      0.38630237      0.12592649    100.0
 <Feb09-2023> <17:52:39>      7      0.28473462      0.09561243     95.6
 <Feb09-2023> <17:52:39>      8      0.07042704      0.02358176     22.8
 <Feb09-2023> <17:52:39>      9      0.02402163      0.00807014      7.1
 <Feb09-2023> <17:52:39>     10      0.00169154      0.00056938      0.0
 <Feb09-2023> <17:52:39>     11      0.00000082      0.00000027      0.0
 <Feb09-2023> <17:52:39>     12      0.00000002      0.00000001      0.0
 <Feb09-2023> <17:52:39>  SCF converged
 <Feb09-2023> <17:52:39>     13      0.00000000      0.00000000      0.0
 <Feb09-2023> <17:52:39>  >>>> POPAN
 <Feb09-2023> <17:52:39>  >>>> DEBYE
 <Feb09-2023> <17:52:39>  NORMAL TERMINATION
 <Feb09-2023> <17:52:39>  END

 *******************************************************************************
 *                                                                             *
 *  -------------------------------------                                      *
 *   Amsterdam Density Functional  (ADF)         2019                          *
 *  -------------------------------------                                      *
 *                                               r74351 2019-04-25             *
 *                                                                             *
 *                                                                             *
 *                            =====================                            *
 *                            |                   |                            *
 *                            |     D I R A C     |                            *
 *                            |                   |                            *
 *                            =====================                            *
 *                                                                             *
 *                                                                             *
 *   Online information and documentation:  https://www.scm.com/support/       *
 *   E-mail:  support@scm.com   info@scm.com                                   *
 *                                                                             *
 *   Scientific publications using ADF results must be properly referenced     *
 *   See the User Manuals (or the web site) for recommended citations          *
 *   The terms and conditions of the End User License Agreement apply to       *
 *   the use of ADF, https://www.scm.com/license-terms/                        *
 *                                                                             *
 **********************  x86_64_linux_intel / intelmpi  ************************
 
 Licensed to: Dr. Carles Bo / Institute of Chemical Research of Catalonia ( (ICIQ) / Tarragona / Spain 2022-11-28 14:37:29
 SCM User ID: u7609
  
 DIRAC 2019  RunTime: Feb09-2023 17:52:39  Nodes: 1  Procs: 1

 Temporary files are created in /scratch/kid_0.227050921

1
 OXYGEN ATOM 1s CORE RELATIVISTIC, Point Nuc, A and c from li
 N J RN H ZN XION ANUC CLIGHT
 5000    4100.00000000197.36710137  8.00000000  0.00000000   15.994914  0.1370360E+03
  PH   PHI     EPS        DEL        DELRVR
  0.30  0.30     2500.00  0.00001000  0.00001000
 IDIRC  NC1  NDEBU NPRIN  IPUN IRCOR IWCOR
   1   300     0     0     0     0     1
   XALPHA      XLATTER      RNUC
  0.70000000  0.00000000  0.00000000 Point Charge
   XN   XL   XJ      XE          XZ      XDELL
  1.0  0.0  0.5      -5.000       2.000     0.00000
  2.0  0.0  0.5      -1.000       2.000     0.00000
  2.0  1.0  0.5      -1.000       2.000     0.00000
  2.0  1.0  1.5      -1.000       2.000     0.00000
 ICORP=  0  NPCL=  0  DEMP=0.00  PEPS=0.000000
 R(1)=  0.1000000E-08 D=  0.1005080E+01 RNUC=  0.0000000E+00
 converged at cycle   28  DENSITY AVERAGING    0.2400
  MAXIMUM ERROR IN R.V(R) IS   0.81125670E-05
 Q,EY,EV,EZ,ESUM,ETOT,RHO  0.800000E+01 -0.101247E+02 -0.114961E+03 -0.177573E+03 -0.405053E+02 -0.743427E+02  0.414766E-14


 DIRAC CALCULATION
1                    OXYGEN ATOM 1s CORE RELATIVISTIC, Point Nuc, A and c from libtc


 EXCHANGE COEFFICIENT=  0.7000000           TAIL CORRECTION=  0.           NUCLEAR RADIUS=  0.000E+00
0                       ORBITAL    N    L    J     ELECTRONS     EIGENVALUE                DELTA OF EIGENV.

                          1S1/2  1.0  0.0  0.5     2.000       -0.1880014E+02                 0.7264358E-06
                          2S1/2  2.0  0.0  0.5     2.000       -0.8412236E+00                 0.5932752E-05
                          2P1/2  2.0  1.0  0.5     2.000       -0.3063203E+00                 0.5998471E-05
                          2P3/2  2.0  1.0  1.5     2.000       -0.3049609E+00                 0.5986971E-05


                                        NUCLEAR CHARGE=    8.000000
                            INTEGRAL OF CHARGE DENSITY=    8.000000
                           SUM OF THE ORBITAL ENERGIES=    -40.5053
                                          TOTAL ENERGY=    -74.3427
                                        KINETIC ENERGY=     74.4552
                             NUCLEAR ATTRACTION ENERGY=   -177.5730
                             ELECTRON REPULSION ENERGY=     36.3686
                                       EXCHANGE ENERGY=     -7.5935

 *******************************************************************************

                             D I R A C   E X I T
 NORMAL TERMINATION



 =================
 Timing Statistics
 =================
  
 Total Used :                     CPU=        0.10      System=        0.00     Elapsed=        0.12

 Calls  Section                     ( Mean, Percentage )
 ---------------------------------------------------------------------------------------------------
     2  ><      ................      0.00    0.00             0.00    0.00             0.00    0.01
     1  EXIT PROCEDURE .........      0.10  100.00             0.00    0.00             0.12   99.99


 Currently Open Files (EXIT00)
 ====================

 Unit    Access Format  Status   Type       Ident (file)
 -------------------------------------------------------
   3      SEQ    FORM   TRANSP  NORMAL      LOGFILE
                                          ( logfile )
 
Create O   file=TZP-O.1s
XC
  GGA PBE
End
relativistic ZORA
Corepotentials t12.rel
End

 *******************************************************************************
 *                                                                             *
 *  -------------------------------------                                      *
 *   Amsterdam Density Functional  (ADF)         2019                          *
 *  -------------------------------------                                      *
 *                                               r74351 2019-04-25             *
 *                                                                             *
 *                                                                             *
 *                              =================                              *
 *                              |               |                              *
 *                              |     A D F     |                              *
 *                              |               |                              *
 *                              =================                              *
 *                                                                             *
 *                                                                             *
 *   Online information and documentation:  https://www.scm.com/support/       *
 *   E-mail:  support@scm.com   info@scm.com                                   *
 *                                                                             *
 *   Scientific publications using ADF results must be properly referenced     *
 *   See the User Manuals (or the web site) for recommended citations          *
 *   The terms and conditions of the End User License Agreement apply to       *
 *   the use of ADF, https://www.scm.com/license-terms/                        *
 *                                                                             *
 **********************  x86_64_linux_intel / intelmpi  ************************
 
 Licensed to: Dr. Carles Bo / Institute of Chemical Research of Catalonia ( (ICIQ) / Tarragona / Spain 2022-11-28 14:37:29
 SCM User ID: u7609
  
 ADF 2019  RunTime: Feb09-2023 17:52:39  Nodes: 1  Procs: 1

 Temporary files are created in /scratch/kid_0.239441718

 Oxygen (TZP, 1s frozen)



 ===========================
 A T T A C H E D   F I L E S
 ===========================
  
 CREATE - Data File:    TZP-O.1s
                        Oxygen (TZP, 1s frozen)
 Core Potentials:
         file : t12.rel



 ===============================
 M O D E L   P A R A M E T E R S
 ===============================
  
 DENSITY FUNCTIONAL POTENTIAL (scf)
    LDA:                               PW92                                    == Not Default ==
    Gradient Corrections:              PBEc PBEx                               == Not Default ==

 SPIN  (restricted / unrestr.)
    Molecule:                          Restricted                               

 OTHER ASPECTS
    Relativistic Corrections:          scalar (ZORA,MAPA)                      == Not Default ==

    Nuclear Charge Density Model:      Point Charge Nuclei                      
    Core Treatment:                    Frozen Orbital(s)                        

    Hyperfine or Zeeman Interaction:   ---                                      



 =====================================
 S Y M M E T R Y ,   E L E C T R O N S
 =====================================
  
 Symmetry: ATOM

 Irreducible Representations, including subspecies
 -------------------------------------------------
 S
 P:x  P:y  P:z
 D:z2  D:x2-y2  D:xy  D:xz  D:yz
 F:z3  F:z  F:xyz  F:z2x  F:z2y  F:x  F:y


 Configuration of Valence Electrons
 ==================================

          Occupation Numbers
          -------------------------------------------------
 S        2
 P        4
 D        0
 F        0
          -------------------------------------------------

 Total:   6

 Net Charge: 0 (Nuclei minus Electrons)

 Preset values for MO occupations will be applied through SCF cycle no. 1000000
 Thereafter, the program will assign electrons to MOs that are spatially
 similar to the occupied MOs in a "reference" cycle ("KeepOrbitals").
 The reference cycle is always the PREVIOUS cycle: it will evolve with
 the SCF procedure.



 ================================
 (Slater-type)  F U N C T I O N S  ***  (Basis and Fit)  ***
 ================================
  

 Atom Type    1  (O)
 ==============

 Valence Basis Sets:   8
 -----------------------
   1 S    7.360000
   2 S    1.720000
   2 S    2.880000
   2 S    7.580000
   2 P    1.120000
   2 P    2.080000
   2 P    4.080000
   3 D    2.000000

 Frozen Core Shells
 ------------------
    S:  1


 BAS: List of all Elementary Cartesian Basis Functions
 =====================================================

 The numbering in the list below (to the right of the function characteristics) is referred
 to in print-outs of MO eigenvectors and Mulliken populations in the BAS representation
 (as contrasted to the SFO representation).

 Notes:
 1. The functions are characterized by a polynomial prefactor (powers of x,y,z and r) and
    an exponential decay factor alpha.
 2. Since the basis sets are specific for an atom TYPE, the individual functions occur on
    all atoms of that type.
 3. The word 'Core' in the left margin signals that it is a Core Function (CF) : not a
    degree of freedom in the valence set, but only used to ensure orthogonalization of
    the other valence basis functions on the frozen Core Orbitals.


 (power of) X  Y  Z  R     Alpha  on Atom
            ==========     =====     ==========

 O                                    1
                                  ---------------------------------------------------------------------------
    Core    0  0  0  0     7.360      1
            0  0  0  1     1.720      2
            0  0  0  1     2.880      3
            0  0  0  1     7.580      4
            1  0  0  0     1.120      5
            0  1  0  0     1.120      6
            0  0  1  0     1.120      7
            1  0  0  0     2.080      8
            0  1  0  0     2.080      9
            0  0  1  0     2.080     10
            1  0  0  0     4.080     11
            0  1  0  0     4.080     12
            0  0  1  0     4.080     13
            2  0  0  0     2.000     14
            1  1  0  0     2.000     15
            1  0  1  0     2.000     16
            0  2  0  0     2.000     17
            0  1  1  0     2.000     18
            0  0  2  0     2.000     19

 Total number of charge fitting functions (nprimf)        82
 Total number of Cartesian basis functions (naos)         19
 Total number of Cartesian core functions  (ncos)          1



 BAS: List of all Elementary Cartesian Basis Functions
 =====================================================

 The numbering in the list below (to the right of the function characteristics) is referred
 to in print-outs of MO eigenvectors and Mulliken populations in the BAS representation
 (as contrasted to the SFO representation).

 Notes:
 1. The functions are characterized by a polynomial prefactor (powers of x,y,z and r) and
    an exponential decay factor alpha.
 2. Since the basis sets are specific for an atom TYPE, the individual functions occur on
    all atoms of that type.
 3. The word 'Core' in the left margin signals that it is a Core Function (CF) : not a
    degree of freedom in the valence set, but only used to ensure orthogonalization of
    the other valence basis functions on the frozen Core Orbitals.


 (power of) X  Y  Z  R     Alpha  on Atom
            ==========     =====     ==========

 O                                    1
                                  ---------------------------------------------------------------------------
    Core    0  0  0  0     7.360      1
            0  0  0  1     1.720      2
            0  0  0  1     2.880      3
            0  0  0  1     7.580      4
            1  0  0  0     1.120      5
            0  1  0  0     1.120      6
            0  0  1  0     1.120      7
            1  0  0  0     2.080      8
            0  1  0  0     2.080      9
            0  0  1  0     2.080     10
            1  0  0  0     4.080     11
            0  1  0  0     4.080     12
            0  0  1  0     4.080     13
            2  0  0  0     2.000     14
            1  1  0  0     2.000     15
            1  0  1  0     2.000     16
            0  2  0  0     2.000     17
            0  1  1  0     2.000     18
            0  0  2  0     2.000     19
1
 ***************************************************************************************************



                                              ***********************
                                              *  T E C H N I C A L  *
                                              ***********************
  



 =============================================================
 P A R A L L E L I Z A T I O N  and  V E C T O R I Z A T I O N
 =============================================================
  
 Nr of parallel processes:                                1
 Maximum vector length in NumInt loops:                 128



 =====================
 S C F   U P D A T E S
 =====================
  
 Max. nr. of cycles:                               300
 Convergence criterion:                              0.0000000100
   secondary criterion:                              0.0000000100

 Mix parameter (when DIIS does not apply):           0.2000000000
 Special mix parameter for the first cycle:          1.0000000000
 Mixed ADIIS+SDIIS will be used                  
    Max number of expansion vectors:                10
    Pure ADIIS when Max([F,P]) is above              0.1000000000
    Pure SDIIS when Max([F,P]) is below              0.0010000000
 Automatic ElectronSmearing (in case of problematic SCF convergence) disabled



 =================
 P R E C I S I O N  ***  (General: NumInt, NeglectFunctionTails, ...)  ***
 =================
  

 NumInt:           Target precision:                12.0000000000
 -------           Initial precision:               10.0000000000
                   Min. precision (optimization):   10.0000000000

 Neglect Functions:          Basis functions:        0.1000000000E-13
 ------------------          Fit functions:          0.1000000000E-13



 ===========================
 L I N E A R   S C A L I N G
 ===========================
  

 Cut-off radii density fit:                        0.1000000000E-97
 Overlap cut-off criterion AO matrix elements:     0.1000000000E-97
 Cut-offs for Coulomb potential and fitted density:0.1000000000E-97
 Cut-off criterion for Coulomb multipole terms:    0.1000000000E-97
 Progressive Convergence parameter:                 0.000000000    
1
 ***************************************************************************************************



                                            ***************************
                                            *  C O M P U T A T I O N  *
                                            ***************************
  

 Number of elements of the density matrix on this node (used, total):       190       190



 ===========================================
 Numerical Integration : Fuzzy Cells (Becke)
 ===========================================
  
 Becke grid quality: VERYGOOD       
  
 Lebedev angular grid order:             min:  13 max:  41
 Nr. of radial points:                   min:  68 max:  68

 Total nr. of points:         68
 Nr. of blocks:                1
 Block length:                68
 Nr. of dummy points:          0


 Test of Precision of the Numerical Integration Grid
 ===================================================

 Integral of the Total Core Density:                   1.99999999865610
 Relative Error:                                      -6.720E-10



 ========================
 Density Fitting (zlmFit)
 ========================
  
 ZlmFit Fit Quality: VERYGOOD       
  
 Max L-expansion:                        min:   0 max:   0
 Nr. of radial interpolation points:     min: 140 max: 140



 =====
 S C F  ***  ScaSCF  ***
 =====
  

 CYCLE    1
 SCF Error: norm([F,P])=      0.000000000000, max([F,P])=      0.000000000000
 orbitals (Q,E):
 ---------------
 S :1...3            ( 2.00    -5.3654)  ( 0.00    -2.2073)  ( 0.00    23.6692)
 P :1...3            ( 4.00    -5.0045)  ( 0.00    -2.0150)  ( 0.00    -0.3846)
 D :1...1            ( 0.00    -2.0410)

 CYCLE    2
 SCF Error: norm([F,P])=      4.562993374873, max([F,P])=      2.528971113813
 orbitals (Q,E):
 ---------------
 S :1...2            ( 2.00    -0.1548)  ( 0.00     1.6948)
 P :1...2            ( 4.00     0.1773)  ( 0.00     0.9552)
 D :1...1            ( 0.00     1.4649)

 CYCLE    3
  SDIIS (wt  0.000):  0.3378  0.6622
 A-DIIS (wt  1.000):  0.4814  0.5186
  DIIS coefficients:  0.4814  0.5186
 SCF Error: norm([F,P])=      2.723155250500, max([F,P])=      1.798667049295
 orbitals (Q,E):
 ---------------
 S :1...2            ( 2.00    -1.1093)  ( 0.00     0.7549)
 P :1...2            ( 4.00    -0.5518)  ( 0.00     0.2590)
 D :1...1            ( 0.00     0.8910)

 CYCLE    4
  SDIIS (wt  0.000):  0.0919  0.9081
 A-DIIS (wt  1.000):  0.0000  1.0000
  DIIS coefficients:  0.0000  1.0000
 SCF Error: norm([F,P])=      0.289027138405, max([F,P])=      0.130648623511
 orbitals (Q,E):
 ---------------
 S :1...2            ( 2.00    -0.7707)  ( 0.00     0.9912)
 P :1...2            ( 4.00    -0.2284)  ( 0.00     0.4046)
 D :1...1            ( 0.00     1.1288)

 CYCLE    5
  SDIIS (wt  0.000):  0.0260  0.6740  0.3001
 A-DIIS (wt  1.000):  0.0000  0.5764  0.4236
  DIIS coefficients:  0.0000  0.5764  0.4236
 SCF Error: norm([F,P])=      0.416615089426, max([F,P])=      0.232643669786
 orbitals (Q,E):
 ---------------
 S :1...2            ( 2.00    -0.8764)  ( 0.00     0.9107)
 P :1...2            ( 4.00    -0.3280)  ( 0.00     0.3557)
 D :1...1            ( 0.00     1.0703)

 CYCLE    6
  SDIIS (wt  0.942):  0.0005  0.0237 -0.0203  0.9960
 A-DIIS (wt  0.058):  0.0000  0.0000  0.0000  1.0000
  DIIS coefficients:  0.0005  0.0224 -0.0191  0.9962
 SCF Error: norm([F,P])=      0.013723272809, max([F,P])=      0.006719036732
 orbitals (Q,E):
 ---------------
 S :1...2            ( 2.00    -0.8830)  ( 0.00     0.9058)
 P :1...2            ( 4.00    -0.3343)  ( 0.00     0.3521)
 D :1...1            ( 0.00     1.0657)

 CYCLE    7
  SDIIS (wt  1.000): -0.0000  0.0016  0.0023  0.0424  0.9537
  DIIS coefficients: -0.0000  0.0016  0.0023  0.0424  0.9537
 SCF Error: norm([F,P])=      0.001103645928, max([F,P])=      0.000634039171
 orbitals (Q,E):
 ---------------
 S :1...2            ( 2.00    -0.8827)  ( 0.00     0.9060)
 P :1...2            ( 4.00    -0.3340)  ( 0.00     0.3523)
 D :1...1            ( 0.00     1.0659)

 CYCLE    8
  SDIIS (wt  1.000): -0.0000 -0.0001  0.0000 -0.0032  0.0268  0.9765
  DIIS coefficients: -0.0000 -0.0001  0.0000 -0.0032  0.0268  0.9765
 SCF Error: norm([F,P])=      0.000035919805, max([F,P])=      0.000020263970
 orbitals (Q,E):
 ---------------
 S :1...2            ( 2.00    -0.8827)  ( 0.00     0.9060)
 P :1...2            ( 4.00    -0.3340)  ( 0.00     0.3522)
 D :1...1            ( 0.00     1.0659)

 CYCLE    9
  SDIIS (wt  1.000): -0.0000  0.0008  0.0188  0.9804
  DIIS coefficients: -0.0000  0.0008  0.0188  0.9804
 SCF Error: norm([F,P])=      0.000000326384, max([F,P])=      0.000000183924
 orbitals (Q,E):
 ---------------
 S :1...2            ( 2.00    -0.8827)  ( 0.00     0.9060)
 P :1...2            ( 4.00    -0.3340)  ( 0.00     0.3522)
 D :1...1            ( 0.00     1.0659)

 CYCLE   10
  SDIIS (wt  1.000):  0.0000  0.0003  0.9996
  DIIS coefficients:  0.0000  0.0003  0.9996
 SCF Error: norm([F,P])=      0.000000000559, max([F,P])=      0.000000000306
 orbitals (Q,E):
 ---------------
 S :1...2            ( 2.00    -0.8827)  ( 0.00     0.9060)
 P :1...2            ( 4.00    -0.3340)  ( 0.00     0.3522)
 D :1...1            ( 0.00     1.0659)

 SCF CONVERGED

 CYCLE   11
1
 ***************************************************************************************************



                                                *******************
                                                *  R E S U L T S  *
                                                *******************
  
 *** Using FIT density in Focky
  SDIIS (wt  1.000): -0.0000  0.0143  0.9857
  DIIS coefficients: -0.0000  0.0143  0.9857
 SCF Error: norm([F,P])=      0.000000000010, max([F,P])=      0.000000000006

 Scaled ZORA Orbital Energies, per Irrep and Spin:
 =================================================
                        Occup              E (au)              E (eV)       Diff (eV) with prev. cycle
                        -----      --------------------        ------       --------------------------
 S
               1        2.000     -0.88272313143209E+00       -24.020              -9.28E-11
               2        0.000      0.90601345014671E+00        24.654
               3        0.000      0.29578810816937E+02       804.880
 P
               1        4.000     -0.33400585272070E+00        -9.089              -8.94E-11
               2        0.000      0.35224911365993E+00         9.585
               3        0.000      0.38342927625315E+01       104.336
 D
               1        0.000      0.10658965783141E+01        29.005


 Partially Occupied:
               1 P                -0.33400585272070E+00
  
 HOMO :        1 S                -0.88272313143209E+00
 LUMO :        2 P                 0.35224911365993E+00
  


 Orbital Energies, all Irreps
 ========================================

 Irrep        no.  (spin)   Occup              E (au)                E (eV)
 ---------------------------------------------------------------------------
 S             1             2.00       -0.88272313143209E+00       -24.0201
 P             1             4.00       -0.33400585272070E+00        -9.0888
 P             2             0.00        0.35224911365993E+00         9.5852
 S             2             0.00        0.90601345014671E+00        24.6539
 D             1             0.00        0.10658965783141E+01        29.0045
 P             3             0.00        0.38342927625315E+01       104.3364
 S             3             0.00        0.29578810816937E+02       804.8804


 Scaled ZORA Orbital Energies of the Core Orbitals:
 ==================================================

 (Note that the atoms are grouped by atomtype, see the labels, and may hence NOT be in input order)

 AtomType  Orbital  Atom                   E (au)                        E (eV)
 --------  -------  ----           --------------------        ----------------
 O           1S        1          -0.18925919758629E+02                -515.000



 =======================================
 M U L L I K E N   P O P U L A T I O N S
 =======================================
  
 The survey below gives for each atom:
 a) the total charge (Z minus electrons)
 b) the net spin polarization (nr of electrons spin-A minus spin-B)
 c) for each spin the atomic electron valence density (integrated) per L-value.

 Atom              Charge    Spin density          S         P         D         F
 ----              ------    ------------       ------    ------    ------    ------
 1 O              -0.0000                       2.0000    4.0000    0.0000    0.0000

 Populations of individual BAS functions
 ----------------------------------------
 1 O            0.0005  0.9226  1.0966 -0.0196  0.3346  0.3346  0.3346  0.7512  0.7512  0.7512
                0.2476  0.2476  0.2476  0.0000  0.0000  0.0000  0.0000  0.0000  0.0000

 Gross Charges per Atom (Z minus electrons)
 ==========================================
            -0.0000
 Net Total: -0.00000000



 =======================================================================
 Electrostatic potential at the Nuclei due to electrons and other nuclei
 =======================================================================
  
         Atom                  Potential
         ----                  ---------
     1)   O                  22.20265662
 
 
 ========================
 No memory problems found
 ========================
 
 Maximum number of active allocate calls:         389
 
 *******************************************************************************

                             A D F   E X I T
 NORMAL TERMINATION



 =================
 Timing Statistics
 =================
  
 Total Used :                     CPU=        0.42      System=        0.02     Elapsed=        0.48

 Calls  Section                     ( Mean, Percentage )
 ---------------------------------------------------------------------------------------------------
     3  ><      ................      0.00    0.00             0.00    0.00             0.00    0.85
     1  INIT    ................      0.06   14.29             0.01   40.00             0.08   16.46
     1  GEOMET  ................      0.02    3.81             0.00   20.00             0.03    5.31
     1  INPUTA  ................      0.00    0.95             0.00    0.00             0.00    0.71
     1  MAINSY  ................      0.01    2.86             0.00    0.00             0.01    2.82
     1  SYMFIT  ................      0.00    0.00             0.00    0.00             0.00    0.33
     1  CORORT  ................      0.00    0.00             0.00    0.00             0.00    0.32
     1  SYMORB  ................      0.00    0.00             0.00   20.00             0.00    0.17
     1  CLSMAT  ................      0.00    0.95             0.00    0.00             0.01    1.15
     1  ORTHON  ................      0.01    1.90             0.00    0.00             0.01    1.11
     1  GENPT   ................      0.01    1.90             0.00    0.00             0.01    3.03
     1  PTBAS   ................      0.01    1.90             0.00    0.00             0.01    1.10
    11  FOCKY   ................      0.02   56.19             0.00   20.00             0.02   51.33
    11  FOCKTR  ................      0.00    0.95             0.00    0.00             0.00    1.37
    11  SDIIS   ................      0.00    5.71             0.00    0.00             0.00    6.10
     1  COREPS  ................      0.02    3.81             0.00    0.00             0.02    3.66
     1  POPAN   ................      0.01    1.90             0.00    0.00             0.00    1.01
     1  DEBYE   ................      0.00    0.00             0.00    0.00             0.00    0.39
     1  EXIT PROCEDURE .........      0.01    2.86             0.00    0.00             0.01    2.77


 Currently Open Files (EXIT00)
 ====================

 Unit    Access Format  Status   Type       Ident (file)
 -------------------------------------------------------
   3      SEQ    FORM   TRANSP  NORMAL      LOGFILE
                                          ( logfile )

 ***************************************************************************************************
 (LOGFILE)
 <Feb09-2023> <17:52:38>  DIRAC 2019  RunTime: Feb09-2023 17:52:38  Nodes: 1  Procs: 1
 <Feb09-2023> <17:52:38>  NORMAL TERMINATION
 <Feb09-2023> <17:52:38>  END
 <Feb09-2023> <17:52:38>  ADF 2019  RunTime: Feb09-2023 17:52:38  Nodes: 1  Procs: 1
 <Feb09-2023> <17:52:38>  Molybdenum (TZP, 3d frozen)
 <Feb09-2023> <17:52:38>  RunType   : CREATE
 <Feb09-2023> <17:52:38>  Net Charge: 0 (Nuclei minus Electrons)
 <Feb09-2023> <17:52:38>  Symmetry  : ATOM
  Coordinates
    Atom         X           Y           Z   (Angstrom)
    1.Mo        0.000000    0.000000    0.000000
 <Feb09-2023> <17:52:38>  >>>> CORORT
 <Feb09-2023> <17:52:38>  >>>> CLSMAT
 <Feb09-2023> <17:52:38>  >>>> ORTHON
 <Feb09-2023> <17:52:38>  >>>> GENPT
 <Feb09-2023> <17:52:38>  Block Length= 106
 <Feb09-2023> <17:52:38>  >>>> PTBAS
 <Feb09-2023> <17:52:38>  >>>> CYCLE
 <Feb09-2023> <17:52:38>              |Error|         MaxErr       Wt(A-DIIS)
 <Feb09-2023> <17:52:38>      1      0.00000000      0.00000000
 <Feb09-2023> <17:52:38>      2      7.14879069      2.36431496    100.0
 <Feb09-2023> <17:52:38>      3      4.21227824      1.56853098    100.0
 <Feb09-2023> <17:52:38>      4      1.82331032      0.62147007    100.0
 <Feb09-2023> <17:52:38>      5      1.05882822      0.36255337    100.0
 <Feb09-2023> <17:52:39>      6      0.38630237      0.12592649    100.0
 <Feb09-2023> <17:52:39>      7      0.28473462      0.09561243     95.6
 <Feb09-2023> <17:52:39>      8      0.07042704      0.02358176     22.8
 <Feb09-2023> <17:52:39>      9      0.02402163      0.00807014      7.1
 <Feb09-2023> <17:52:39>     10      0.00169154      0.00056938      0.0
 <Feb09-2023> <17:52:39>     11      0.00000082      0.00000027      0.0
 <Feb09-2023> <17:52:39>     12      0.00000002      0.00000001      0.0
 <Feb09-2023> <17:52:39>  SCF converged
 <Feb09-2023> <17:52:39>     13      0.00000000      0.00000000      0.0
 <Feb09-2023> <17:52:39>  >>>> POPAN
 <Feb09-2023> <17:52:39>  >>>> DEBYE
 <Feb09-2023> <17:52:39>  NORMAL TERMINATION
 <Feb09-2023> <17:52:39>  END
 <Feb09-2023> <17:52:39>  DIRAC 2019  RunTime: Feb09-2023 17:52:39  Nodes: 1  Procs: 1
 <Feb09-2023> <17:52:39>  NORMAL TERMINATION
 <Feb09-2023> <17:52:39>  END
 <Feb09-2023> <17:52:39>  ADF 2019  RunTime: Feb09-2023 17:52:39  Nodes: 1  Procs: 1
 <Feb09-2023> <17:52:39>  Oxygen (TZP, 1s frozen)
 <Feb09-2023> <17:52:39>  RunType   : CREATE
 <Feb09-2023> <17:52:39>  Net Charge: 0 (Nuclei minus Electrons)
 <Feb09-2023> <17:52:39>  Symmetry  : ATOM
  Coordinates
    Atom         X           Y           Z   (Angstrom)
    1.O         0.000000    0.000000    0.000000
 <Feb09-2023> <17:52:39>  >>>> CORORT
 <Feb09-2023> <17:52:39>  >>>> CLSMAT
 <Feb09-2023> <17:52:39>  >>>> ORTHON
 <Feb09-2023> <17:52:39>  >>>> GENPT
 <Feb09-2023> <17:52:39>  Block Length=  68
 <Feb09-2023> <17:52:39>  >>>> PTBAS
 <Feb09-2023> <17:52:39>  >>>> CYCLE
 <Feb09-2023> <17:52:39>              |Error|         MaxErr       Wt(A-DIIS)
 <Feb09-2023> <17:52:39>      1      0.00000000      0.00000000
 <Feb09-2023> <17:52:39>      2      4.56299337      2.52897111
 <Feb09-2023> <17:52:39>      3      2.72315525      1.79866705    100.0
 <Feb09-2023> <17:52:39>      4      0.28902714      0.13064862    100.0
 <Feb09-2023> <17:52:39>      5      0.41661509      0.23264367    100.0
 <Feb09-2023> <17:52:39>      6      0.01372327      0.00671904      5.8
 <Feb09-2023> <17:52:39>      7      0.00110365      0.00063404      0.0
 <Feb09-2023> <17:52:39>      8      0.00003592      0.00002026      0.0
 <Feb09-2023> <17:52:39>      9      0.00000033      0.00000018      0.0
 <Feb09-2023> <17:52:40>     10      0.00000000      0.00000000      0.0
 <Feb09-2023> <17:52:40>  SCF converged
 <Feb09-2023> <17:52:40>     11      0.00000000      0.00000000      0.0
 <Feb09-2023> <17:52:40>  >>>> POPAN
 <Feb09-2023> <17:52:40>  >>>> DEBYE
 <Feb09-2023> <17:52:40>  NORMAL TERMINATION
 <Feb09-2023> <17:52:40>  END


 Parallel Execution: Process Information
 ==============================================================================
 Rank   Node Name                              NodeID   MyNodeRank  NodeMaster
    0   kimik2218                                 0          0          0
    1   kimik2218                                 0          1         -1
    2   kimik2218                                 0          2         -1
    3   kimik2218                                 0          3         -1
    4   kimik2218                                 0          4         -1
    5   kimik2218                                 0          5         -1
    6   kimik2218                                 0          6         -1
    7   kimik2218                                 0          7         -1
    8   kimik2218                                 0          8         -1
    9   kimik2218                                 0          9         -1
   10   kimik2218                                 0         10         -1
   11   kimik2218                                 0         11         -1
   12   kimik2218                                 0         12         -1
   13   kimik2218                                 0         13         -1
   14   kimik2218                                 0         14         -1
   15   kimik2218                                 0         15         -1
   16   kimik2218                                 0         16         -1
   17   kimik2218                                 0         17         -1
   18   kimik2218                                 0         18         -1
   19   kimik2218                                 0         19         -1
   20   kimik2218                                 0         20         -1
   21   kimik2218                                 0         21         -1
   22   kimik2218                                 0         22         -1
   23   kimik2218                                 0         23         -1
   24   kimik2218                                 0         24         -1
   25   kimik2218                                 0         25         -1
   26   kimik2218                                 0         26         -1
   27   kimik2218                                 0         27         -1
 ==============================================================================


May use up to 61376MB of RAM as shared memory on node 0
 
AnalyticalFreq
end

NumericalQuality Good

QTAIM
    Enabled Yes
End

Relativistic Scalar ZORA

SOLVATION
  Surf Delley
  Solv name=Water cav0=0.0 cav1=0.0067639
  Charged method=CONJ
  C-Mat POT
  SCF VAR ALL
  CSMRSP
  Radii
    H=1.30
    O=1.72
    Mo=1.992
    Si=2.48
    W=1.992
    P=2.13
  SubEnd
end

ScanFreq -1000 0

XC
  GGA PBE
end

atoms
      1         O     -2.472795     -0.648010     -1.044586
      2         O     -0.967482      1.808826     -0.274048
      3        Mo     -2.678235      1.148028     -0.471920
      4        Mo     -1.019524     -1.821581     -1.337027
      5         O      0.484800     -0.802185     -1.058664
      6        Mo      0.823669      1.053222     -0.506135
      7         O     -1.083807     -3.352364     -0.316921
      8         O      1.727388      1.905412     -1.667821
      9         O      1.734794      1.129489      0.927321
     10         O     -3.456597      2.038873     -1.668609
     11         O     -3.609872      1.308363      1.097140
     12         O     -1.034277     -2.393977     -2.922958
end

charge 0

geometry
end

Fragments
Mo t21.Mo
O t21.O
End

 *******************************************************************************
 *                                                                             *
 *  -------------------------------------                                      *
 *   Amsterdam Density Functional  (ADF)         2019                          *
 *  -------------------------------------                                      *
 *                                               r74351 2019-04-25             *
 *                                                                             *
 *                                                                             *
 *                              =================                              *
 *                              |               |                              *
 *                              |     A D F     |                              *
 *                              |               |                              *
 *                              =================                              *
 *                                                                             *
 *                                                                             *
 *   Online information and documentation:  https://www.scm.com/support/       *
 *   E-mail:  support@scm.com   info@scm.com                                   *
 *                                                                             *
 *   Scientific publications using ADF results must be properly referenced     *
 *   See the User Manuals (or the web site) for recommended citations          *
 *   The terms and conditions of the End User License Agreement apply to       *
 *   the use of ADF, https://www.scm.com/license-terms/                        *
 *                                                                             *
 **********************  x86_64_linux_intel / intelmpi  ************************
 
 Licensed to: Dr. Carles Bo / Institute of Chemical Research of Catalonia ( (ICIQ) / Tarragona / Spain 2022-11-28 14:37:29
 SCM User ID: u7609
  
 ADF 2019  RunTime: Feb09-2023 17:52:40  Nodes: 1  Procs: 28

 Temporary files are created in /scratch/kid_0.54871515


Communication costs MPI_COMM_WORLD:      1.602 usec per message,   0.0132 usec per 8-byte item
Communication costs for intra-node:      1.548 usec per message,   0.0131 usec per 8-byte item

 *** (NO TITLE) ***



 ===========================
 A T T A C H E D   F I L E S
 ===========================
  



 ===============================
 M O D E L   P A R A M E T E R S
 ===============================
  
 DENSITY FUNCTIONAL POTENTIAL (scf)
    LDA:                               PW92                                    == Not Default ==
    Gradient Corrections:              PBEc PBEx                               == Not Default ==

 SPIN  (restricted / unrestr.)
    Molecule:                          Restricted                               
    Fragments:                         Restricted                               

 OTHER ASPECTS
    Relativistic Corrections:          scalar (ZORA,MAPA)                      == Not Default ==

    Nuclear Charge Density Model:      Point Charge Nuclei                      
    Core Treatment:                    Frozen Orbital(s)                        

    Hyperfine or Zeeman Interaction:   ---                                      

 SOLVATION
-------------------------------------------

  The Delley construction of COSMO surface surface is calculated

       Division Level for Surface Triangles (NDIV)                  3
       Final Division Level for Triangles (NFDIV)                   1
       Radius of the Solvent (RSOL)                           1.93000 angstr
  Dielectric Constant (EPSL)                                 78.39000

       COSMO equation is solved iteratively-               conjugate-gradient

       Maximun of Iterations for Charges (NCIX)                  1000
       Criterion for Charge convergence (CCNV)                1.0E-08

  COSMO charges included variationally in SCF

       COSMO included at every SCF cycle

  Geometry-dependent empirical factor                         0.00000

  C-Matrix calculated in cspmtx

  In cspmtx, C-Matrix calculated using fitted potential

-------------------------------------------



 Fragment File(s)
 ----------------
 O:
         file : t21.O
         jobid: ADF 2019  RunTime: Feb09-2023 17:52:39  Nodes: 1  Procs: 1
         title: Oxygen (TZP, 1s frozen)
 Mo:
         file : t21.Mo
         jobid: ADF 2019  RunTime: Feb09-2023 17:52:38  Nodes: 1  Procs: 1
         title: Molybdenum (TZP, 3d frozen)



                                   *********************************************
                                   *  R U N   T Y P E : GEOMETRY OPTIMIZATION  *
                                   *********************************************
  



 ===============
 G E O M E T R Y  ***  3D  Molecule  ***
 ===============
  

 ATOMS
[...]
    4.Mo       -1.029420   -1.823968   -1.345698
    5.O         0.548032   -0.786144   -1.037634
    6.Mo        0.815286    1.029380   -0.497774
    7.O        -1.064570   -3.188572   -0.301712
    8.O         1.720346    1.888337   -1.680063
    9.O         1.725120    1.093762    0.959400
   10.O        -3.541436    2.063443   -1.638660
   11.O        -3.550979    1.258682    0.998860
   12.O        -1.054023   -2.431315   -2.953331
 <Feb09-2023> <17:55:00>  >>>> CORORT
 <Feb09-2023> <17:55:00>  >>>> CLSMAT
 <Feb09-2023> <17:55:00>  >>>> ORTHON
 <Feb09-2023> <17:55:01>  >>>> GENPT
 <Feb09-2023> <17:55:01>  Block Length= 128
 <Feb09-2023> <17:55:01>  >>>> PTBAS
 <Feb09-2023> <17:55:01>  combining surface points...
 <Feb09-2023> <17:55:01>  combining surface points...
 <Feb09-2023> <17:55:01>  combining surface points...
 <Feb09-2023> <17:55:01>  >>>> CYCLE
 <Feb09-2023> <17:55:02>              |Error|         MaxErr       Wt(A-DIIS)
 <Feb09-2023> <17:55:02>      1      0.14879943      0.02214711
 <Feb09-2023> <17:55:03>      2      0.93414706      0.16130012    100.0
 <Feb09-2023> <17:55:04>      3      0.33010131      0.05629532    100.0
 <Feb09-2023> <17:55:05>      4      0.09766685      0.00881942      7.9
 <Feb09-2023> <17:55:05>      5      0.06178586      0.00997833      7.9
 <Feb09-2023> <17:55:06>      6      0.06606058      0.00906825      7.9
 <Feb09-2023> <17:55:07>      7      0.01520121      0.00268348      1.7
 <Feb09-2023> <17:55:08>      8      0.01394735      0.00290756      1.7
 <Feb09-2023> <17:55:08>      9      0.00208246      0.00036861      0.0
 <Feb09-2023> <17:55:09>     10      0.00166034      0.00030933      0.0
 <Feb09-2023> <17:55:10>     11      0.00029978      0.00005666      0.0
 <Feb09-2023> <17:55:10>     12      0.00024635      0.00004167      0.0
 <Feb09-2023> <17:55:11>     13      0.00005089      0.00000868      0.0
 <Feb09-2023> <17:55:12>     14      0.00002581      0.00000638      0.0
 <Feb09-2023> <17:55:12>     15      0.00001779      0.00000393      0.0
 <Feb09-2023> <17:55:13>     16      0.00000163      0.00000024      0.0
 <Feb09-2023> <17:55:13>  SCF converged
 <Feb09-2023> <17:55:14>     17      0.00000134      0.00000029      0.0
 <Feb09-2023> <17:55:14>  >>>> TOTEN
 <Feb09-2023> <17:55:16>  QTAIM: determining topology...
 <Feb09-2023> <17:55:16>  >>>> POPAN
 <Feb09-2023> <17:55:16>  >>>> DEBYE
 <Feb09-2023> <17:55:16>  >>>> AMETS
 <Feb09-2023> <17:55:16>  >>>> POPUL
 <Feb09-2023> <17:55:16>   Bond Energy          -3.58338521 a.u.
 <Feb09-2023> <17:55:16>   Bond Energy         -97.50887279 eV
 <Feb09-2023> <17:55:16>   Bond Energy       -2248.61       kcal/mol
 <Feb09-2023> <17:55:16>  >>>> ENHESS
 <Feb09-2023> <17:55:18>  === NUCLEUS:     1
 <Feb09-2023> <17:55:57>  === NUCLEUS:     2
 <Feb09-2023> <17:56:33>  === NUCLEUS:     3
 <Feb09-2023> <17:57:12>  === NUCLEUS:     4
 <Feb09-2023> <17:57:50>  === NUCLEUS:     5
 <Feb09-2023> <17:58:30>  === NUCLEUS:     6
 <Feb09-2023> <17:59:08>  === NUCLEUS:     7
 <Feb09-2023> <17:59:47>  === NUCLEUS:     8
 <Feb09-2023> <18:00:24>  === NUCLEUS:     9
 <Feb09-2023> <18:01:01>  === NUCLEUS:    10
 <Feb09-2023> <18:01:42>  === NUCLEUS:    11
 <Feb09-2023> <18:02:22>  === NUCLEUS:    12
 <Feb09-2023> <18:03:03>  >>>> CALC_HESS_PMAT
 <Feb09-2023> <18:03:06>  >>>> CALC_HESS_WMAT
 <Feb09-2023> <18:03:07>  Symmetry  : NOSYM
 <Feb09-2023> <18:03:07>  >>>> FRAGM
 <Feb09-2023> <18:03:07>  Geometry symmetry displacement    1 out of    6
  Coordinates in Geometry Cycle 8
    Atom         X           Y           Z   (Angstrom)
    1.O        -2.535833   -0.690072   -1.023376
    2.O        -0.906704    1.823412   -0.249023
    3.Mo       -2.677752    1.137516   -0.476449
    4.Mo       -1.029423   -1.823969   -1.345690
    5.O         0.548029   -0.786479   -1.036496
    6.Mo        0.815289    1.029379   -0.497763
    7.O        -1.065347   -3.188713   -0.301913
    8.O         1.720305    1.887708   -1.680545
    9.O         1.725164    1.094551    0.959349
   10.O        -3.541948    2.063749   -1.638058
   11.O        -3.550467    1.258091    0.999189
   12.O        -1.053264   -2.431086   -2.953422
 <Feb09-2023> <18:03:07>  >>>> CORORT
 <Feb09-2023> <18:03:07>  >>>> CLSMAT
 <Feb09-2023> <18:03:07>  >>>> ORTHON
 <Feb09-2023> <18:03:07>  >>>> GENPT
 <Feb09-2023> <18:03:07>  Block Length= 128
 <Feb09-2023> <18:03:07>  >>>> PTBAS
 <Feb09-2023> <18:03:08>  combining surface points...
 <Feb09-2023> <18:03:08>  combining surface points...
 <Feb09-2023> <18:03:08>  combining surface points...
 <Feb09-2023> <18:03:08>  >>>> CYCLE
 <Feb09-2023> <18:03:09>              |Error|         MaxErr       Wt(A-DIIS)
 <Feb09-2023> <18:03:09>      1      0.14881487      0.01843532
 <Feb09-2023> <18:03:10>      2      0.93414650      0.13099213    100.0
 <Feb09-2023> <18:03:10>      3      0.33005864      0.04600514    100.0
 <Feb09-2023> <18:03:11>      4      0.09766083      0.00888420      8.0
 <Feb09-2023> <18:03:12>      5      0.06176761      0.00798283      7.1
 <Feb09-2023> <18:03:13>      6      0.06452343      0.00941928      7.1
 <Feb09-2023> <18:03:13>      7      0.01486241      0.00222842      1.2
 <Feb09-2023> <18:03:14>      8      0.01375166      0.00244653      1.2
 <Feb09-2023> <18:03:15>      9      0.00200953      0.00028590      0.0
 <Feb09-2023> <18:03:16>     10      0.00165221      0.00028988      0.0
 <Feb09-2023> <18:03:16>     11      0.00030386      0.00005868      0.0
 <Feb09-2023> <18:03:17>     12      0.00024568      0.00004585      0.0
 <Feb09-2023> <18:03:18>     13      0.00005090      0.00000785      0.0
 <Feb09-2023> <18:03:18>     14      0.00002604      0.00000650      0.0
 <Feb09-2023> <18:03:19>     15      0.00001815      0.00000405      0.0
 <Feb09-2023> <18:03:20>     16      0.00000164      0.00000023      0.0
 <Feb09-2023> <18:03:20>  SCF converged
 <Feb09-2023> <18:03:20>     17      0.00000136      0.00000023      0.0
 <Feb09-2023> <18:03:20>  >>>> TOTEN
 <Feb09-2023> <18:03:21>  >>>> POPAN
 <Feb09-2023> <18:03:21>  >>>> DEBYE
 <Feb09-2023> <18:03:21>  >>>> ENGRAD
 <Feb09-2023> <18:03:22>  Geometry symmetry displacement    2 out of    6
  Coordinates in Geometry Cycle 8
    Atom         X           Y           Z   (Angstrom)
    1.O        -2.535832   -0.690518   -1.021857
    2.O        -0.906710    1.823133   -0.248128
    3.Mo       -2.677756    1.137508   -0.476399
    4.Mo       -1.029417   -1.823967   -1.345705
    5.O         0.548035   -0.785809   -1.038772
    6.Mo        0.815283    1.029382   -0.497785
    7.O        -1.063793   -3.188432   -0.301510
    8.O         1.720387    1.888966   -1.679582
    9.O         1.725076    1.092974    0.959451
   10.O        -3.540924    2.063138   -1.639261
   11.O        -3.551491    1.259273    0.998531
   12.O        -1.054783   -2.431543   -2.953241
 <Feb09-2023> <18:03:22>  >>>> CORORT
 <Feb09-2023> <18:03:22>  >>>> CLSMAT
 <Feb09-2023> <18:03:22>  >>>> ORTHON
 <Feb09-2023> <18:03:22>  >>>> GENPT
 <Feb09-2023> <18:03:22>  Block Length= 128
 <Feb09-2023> <18:03:23>  >>>> PTBAS
 <Feb09-2023> <18:03:23>  combining surface points...
 <Feb09-2023> <18:03:23>  combining surface points...
 <Feb09-2023> <18:03:23>  combining surface points...
 <Feb09-2023> <18:03:23>  >>>> CYCLE
 <Feb09-2023> <18:03:24>              |Error|         MaxErr       Wt(A-DIIS)
 <Feb09-2023> <18:03:24>      1      0.14886457      0.01844918
 <Feb09-2023> <18:03:25>      2      0.93418082      0.13102515    100.0
 <Feb09-2023> <18:03:26>      3      0.32990971      0.04599116    100.0
 <Feb09-2023> <18:03:26>      4      0.09763591      0.00886423      7.9
 <Feb09-2023> <18:03:27>      5      0.06149852      0.00790024      7.0
 <Feb09-2023> <18:03:28>      6      0.06439164      0.00944723      7.0
 <Feb09-2023> <18:03:29>      7      0.01485208      0.00220736      1.2
 <Feb09-2023> <18:03:29>      8      0.01369294      0.00230616      1.2
 <Feb09-2023> <18:03:30>      9      0.00201421      0.00028209      0.0
 <Feb09-2023> <18:03:31>     10      0.00166436      0.00026989      0.0
 <Feb09-2023> <18:03:32>     11      0.00030496      0.00005625      0.0
 <Feb09-2023> <18:03:32>     12      0.00024578      0.00004604      0.0
 <Feb09-2023> <18:03:33>     13      0.00005090      0.00000783      0.0
 <Feb09-2023> <18:03:34>     14      0.00002613      0.00000658      0.0
 <Feb09-2023> <18:03:34>     15      0.00001824      0.00000414      0.0
 <Feb09-2023> <18:03:35>     16      0.00000164      0.00000024      0.0
 <Feb09-2023> <18:03:35>  SCF converged
 <Feb09-2023> <18:03:35>     17      0.00000119      0.00000020      0.0
 <Feb09-2023> <18:03:36>  >>>> TOTEN
 <Feb09-2023> <18:03:36>  >>>> POPAN
 <Feb09-2023> <18:03:36>  >>>> DEBYE
 <Feb09-2023> <18:03:36>  >>>> ENGRAD
 <Feb09-2023> <18:03:38>  Old frequency:    -68.33948, new:     66.43962
 <Feb09-2023> <18:03:38>  Geometry symmetry displacement    3 out of    6
  Coordinates in Geometry Cycle 8
    Atom         X           Y           Z   (Angstrom)
    1.O        -2.535839   -0.690030   -1.023536
    2.O        -0.906710    1.822927   -0.247484
    3.Mo       -2.677748    1.137504   -0.476422
    4.Mo       -1.029422   -1.823956   -1.345715
    5.O         0.548036   -0.786092   -1.037811
    6.Mo        0.815285    1.029375   -0.497758
    7.O        -1.064858   -3.188087   -0.301115
    8.O         1.719640    1.888650   -1.680361
    9.O         1.725810    1.093672    0.958986
   10.O        -3.540911    2.064062   -1.638544
   11.O        -3.551485    1.258106    0.998606
   12.O        -1.053753   -2.432029   -2.953076
 <Feb09-2023> <18:03:38>  >>>> CORORT
 <Feb09-2023> <18:03:38>  >>>> CLSMAT
 <Feb09-2023> <18:03:38>  >>>> ORTHON
 <Feb09-2023> <18:03:38>  >>>> GENPT
 <Feb09-2023> <18:03:38>  Block Length= 128
 <Feb09-2023> <18:03:38>  >>>> PTBAS
 <Feb09-2023> <18:03:38>  combining surface points...
 <Feb09-2023> <18:03:38>  combining surface points...
 <Feb09-2023> <18:03:38>  combining surface points...
 <Feb09-2023> <18:03:38>  >>>> CYCLE
 <Feb09-2023> <18:03:39>              |Error|         MaxErr       Wt(A-DIIS)
 <Feb09-2023> <18:03:39>      1      0.14882884      0.01845092
 <Feb09-2023> <18:03:40>      2      0.93413758      0.13101486    100.0
 <Feb09-2023> <18:03:41>      3      0.33005874      0.04601181    100.0
 <Feb09-2023> <18:03:42>      4      0.09765808      0.00887755      8.0
 <Feb09-2023> <18:03:43>      5      0.06176666      0.00799395      7.1
 <Feb09-2023> <18:03:43>      6      0.06458555      0.00940008      7.1
 <Feb09-2023> <18:03:44>      7      0.01498156      0.00221330      1.2
 <Feb09-2023> <18:03:45>      8      0.01366987      0.00241326      1.2
 <Feb09-2023> <18:03:46>      9      0.00202161      0.00028776      0.0
 <Feb09-2023> <18:03:46>     10      0.00168029      0.00029122      0.0
 <Feb09-2023> <18:03:47>     11      0.00030290      0.00005719      0.0
 <Feb09-2023> <18:03:48>     12      0.00024563      0.00004591      0.0
 <Feb09-2023> <18:03:48>     13      0.00005064      0.00000774      0.0
 <Feb09-2023> <18:03:49>     14      0.00002634      0.00000652      0.0
 <Feb09-2023> <18:03:50>     15      0.00001799      0.00000400      0.0
 <Feb09-2023> <18:03:50>     16      0.00000164      0.00000023      0.0
 <Feb09-2023> <18:03:50>  SCF converged
 <Feb09-2023> <18:03:51>     17      0.00000128      0.00000022      0.0
 <Feb09-2023> <18:03:51>  >>>> TOTEN
 <Feb09-2023> <18:03:51>  >>>> POPAN
 <Feb09-2023> <18:03:51>  >>>> DEBYE
 <Feb09-2023> <18:03:51>  >>>> ENGRAD
 <Feb09-2023> <18:03:53>  Geometry symmetry displacement    4 out of    6
  Coordinates in Geometry Cycle 8
    Atom         X           Y           Z   (Angstrom)
    1.O        -2.535825   -0.690561   -1.021697
    2.O        -0.906705    1.823617   -0.249668
    3.Mo       -2.677760    1.137521   -0.476426
    4.Mo       -1.029419   -1.823980   -1.345680
    5.O         0.548028   -0.786195   -1.037458
    6.Mo        0.815288    1.029385   -0.497790
    7.O        -1.064283   -3.189058   -0.302309
    8.O         1.721051    1.888025   -1.679766
    9.O         1.724431    1.093853    0.959814
   10.O        -3.541961    2.062825   -1.638775
   11.O        -3.550474    1.259258    0.999114
   12.O        -1.054294   -2.430601   -2.953586
 <Feb09-2023> <18:03:53>  >>>> CORORT
 <Feb09-2023> <18:03:53>  >>>> CLSMAT
 <Feb09-2023> <18:03:53>  >>>> ORTHON
 <Feb09-2023> <18:03:53>  >>>> GENPT
 <Feb09-2023> <18:03:53>  Block Length= 128
 <Feb09-2023> <18:03:53>  >>>> PTBAS
 <Feb09-2023> <18:03:53>  combining surface points...
 <Feb09-2023> <18:03:53>  combining surface points...
 <Feb09-2023> <18:03:53>  combining surface points...
 <Feb09-2023> <18:03:53>  >>>> CYCLE
 <Feb09-2023> <18:03:55>              |Error|         MaxErr       Wt(A-DIIS)
 <Feb09-2023> <18:03:55>      1      0.14885349      0.01841016
 <Feb09-2023> <18:03:55>      2      0.93411513      0.13091108    100.0
 <Feb09-2023> <18:03:56>      3      0.32983323      0.04594552    100.0
 <Feb09-2023> <18:03:57>      4      0.09762925      0.00887762      8.0
 <Feb09-2023> <18:03:58>      5      0.06142430      0.00788394      7.0
 <Feb09-2023> <18:03:59>      6      0.06429482      0.00946676      7.0
 <Feb09-2023> <18:03:59>      7      0.01466572      0.00222507      1.2
 <Feb09-2023> <18:04:00>      8      0.01380788      0.00237958      1.2
 <Feb09-2023> <18:04:01>      9      0.00199388      0.00028039      0.0
 <Feb09-2023> <18:04:01>     10      0.00162037      0.00027038      0.0
 <Feb09-2023> <18:04:02>     11      0.00030602      0.00005868      0.0
 <Feb09-2023> <18:04:03>     12      0.00024555      0.00004579      0.0
 <Feb09-2023> <18:04:04>     13      0.00005102      0.00000795      0.0
 <Feb09-2023> <18:04:04>     14      0.00002572      0.00000656      0.0
 <Feb09-2023> <18:04:05>     15      0.00001841      0.00000418      0.0
 <Feb09-2023> <18:04:05>     16      0.00000165      0.00000024      0.0
 <Feb09-2023> <18:04:06>  SCF converged
 <Feb09-2023> <18:04:06>     17      0.00000132      0.00000023      0.0
 <Feb09-2023> <18:04:06>  >>>> TOTEN
 <Feb09-2023> <18:04:07>  >>>> POPAN
 <Feb09-2023> <18:04:07>  >>>> DEBYE
 <Feb09-2023> <18:04:07>  >>>> ENGRAD
 <Feb09-2023> <18:04:08>  Old frequency:    -66.17397, new:    -51.97394
 <Feb09-2023> <18:04:08>  Geometry symmetry displacement    5 out of    6
  Coordinates in Geometry Cycle 8
    Atom         X           Y           Z   (Angstrom)
    1.O        -2.535834   -0.690107   -1.023262
    2.O        -0.906705    1.823472   -0.249225
    3.Mo       -2.677754    1.137523   -0.476474
    4.Mo       -1.029421   -1.823953   -1.345743
    5.O         0.548032   -0.785931   -1.038351
    6.Mo        0.815289    1.029395   -0.497820
    7.O        -1.064518   -3.187997   -0.301020
    8.O         1.720997    1.888547   -1.679466
    9.O         1.724484    1.093262    0.959777
   10.O        -3.542047    2.063664   -1.638087
   11.O        -3.550375    1.258174    0.999212
   12.O        -1.054088   -2.432162   -2.953048
 <Feb09-2023> <18:04:08>  >>>> CORORT
 <Feb09-2023> <18:04:08>  >>>> CLSMAT
 <Feb09-2023> <18:04:08>  >>>> ORTHON
 <Feb09-2023> <18:04:08>  >>>> GENPT
 <Feb09-2023> <18:04:08>  Block Length= 128
 <Feb09-2023> <18:04:08>  >>>> PTBAS
 <Feb09-2023> <18:04:09>  combining surface points...
 <Feb09-2023> <18:04:09>  combining surface points...
 <Feb09-2023> <18:04:09>  combining surface points...
 <Feb09-2023> <18:04:09>  >>>> CYCLE
 <Feb09-2023> <18:04:10>              |Error|         MaxErr       Wt(A-DIIS)
 <Feb09-2023> <18:04:10>      1      0.14884269      0.01844948
 <Feb09-2023> <18:04:11>      2      0.93421547      0.13107592    100.0
 <Feb09-2023> <18:04:12>      3      0.33008462      0.04603300    100.0
 <Feb09-2023> <18:04:12>      4      0.09766473      0.00886702      7.9
 <Feb09-2023> <18:04:13>      5      0.06175058      0.00795698      7.0
 <Feb09-2023> <18:04:14>      6      0.06447379      0.00941263      7.0
 <Feb09-2023> <18:04:15>      7      0.01485351      0.00222349      1.2
 <Feb09-2023> <18:04:15>      8      0.01374846      0.00237573      1.2
 <Feb09-2023> <18:04:16>      9      0.00200338      0.00028146      0.0
 <Feb09-2023> <18:04:17>     10      0.00164745      0.00027730      0.0
 <Feb09-2023> <18:04:17>     11      0.00030419      0.00005760      0.0
 <Feb09-2023> <18:04:18>     12      0.00024553      0.00004576      0.0
 <Feb09-2023> <18:04:19>     13      0.00005045      0.00000788      0.0
 <Feb09-2023> <18:04:19>     14      0.00002513      0.00000626      0.0
 <Feb09-2023> <18:04:20>     15      0.00001835      0.00000402      0.0
 <Feb09-2023> <18:04:21>     16      0.00000166      0.00000024      0.0
 <Feb09-2023> <18:04:21>  SCF converged
 <Feb09-2023> <18:04:21>     17      0.00000133      0.00000023      0.0
 <Feb09-2023> <18:04:22>  >>>> TOTEN
 <Feb09-2023> <18:04:22>  >>>> POPAN
 <Feb09-2023> <18:04:22>  >>>> DEBYE
 <Feb09-2023> <18:04:22>  >>>> ENGRAD
 <Feb09-2023> <18:04:23>  Geometry symmetry displacement    6 out of    6
  Coordinates in Geometry Cycle 8
    Atom         X           Y           Z   (Angstrom)
    1.O        -2.535830   -0.690483   -1.021971
    2.O        -0.906709    1.823072   -0.247927
    3.Mo       -2.677753    1.137501   -0.476373
    4.Mo       -1.029419   -1.823984   -1.345653
    5.O         0.548032   -0.786357   -1.036917
    6.Mo        0.815284    1.029366   -0.497729
    7.O        -1.064622   -3.189148   -0.302404
    8.O         1.719695    1.888127   -1.680660
    9.O         1.725756    1.094263    0.959022
   10.O        -3.540824    2.063223   -1.639232
   11.O        -3.551584    1.259190    0.998509
   12.O        -1.053959   -2.430467   -2.953614
 <Feb09-2023> <18:04:24>  >>>> CORORT
 <Feb09-2023> <18:04:24>  >>>> CLSMAT
 <Feb09-2023> <18:04:24>  >>>> ORTHON
 <Feb09-2023> <18:04:24>  >>>> GENPT
 <Feb09-2023> <18:04:24>  Block Length= 128
 <Feb09-2023> <18:04:24>  >>>> PTBAS
 <Feb09-2023> <18:04:24>  combining surface points...
 <Feb09-2023> <18:04:24>  combining surface points...
 <Feb09-2023> <18:04:24>  combining surface points...
 <Feb09-2023> <18:04:24>  >>>> CYCLE
 <Feb09-2023> <18:04:25>              |Error|         MaxErr       Wt(A-DIIS)
 <Feb09-2023> <18:04:25>      1      0.14886664      0.01843861
 <Feb09-2023> <18:04:26>      2      0.93417359      0.13091375    100.0
 <Feb09-2023> <18:04:27>      3      0.32991021      0.04595395    100.0
 <Feb09-2023> <18:04:28>      4      0.09763799      0.00888439      8.0
 <Feb09-2023> <18:04:28>      5      0.06152174      0.00795175      7.0
 <Feb09-2023> <18:04:29>      6      0.06449648      0.00944180      7.0
 <Feb09-2023> <18:04:30>      7      0.01491402      0.00220997      1.2
 <Feb09-2023> <18:04:31>      8      0.01367468      0.00240517      1.2
 <Feb09-2023> <18:04:31>      9      0.00202650      0.00028906      0.0
 <Feb09-2023> <18:04:32>     10      0.00167948      0.00028927      0.0
 <Feb09-2023> <18:04:33>     11      0.00030393      0.00005738      0.0
 <Feb09-2023> <18:04:33>     12      0.00024584      0.00004604      0.0
 <Feb09-2023> <18:04:34>     13      0.00005131      0.00000776      0.0
 <Feb09-2023> <18:04:35>     14      0.00002722      0.00000685      0.0
 <Feb09-2023> <18:04:35>     15      0.00001792      0.00000412      0.0
 <Feb09-2023> <18:04:36>     16      0.00000163      0.00000023      0.0
 <Feb09-2023> <18:04:36>  SCF converged
 <Feb09-2023> <18:04:37>     17      0.00000124      0.00000021      0.0
 <Feb09-2023> <18:04:37>  >>>> TOTEN
 <Feb09-2023> <18:04:37>  >>>> POPAN
 <Feb09-2023> <18:04:37>  >>>> DEBYE
 <Feb09-2023> <18:04:37>  >>>> ENGRAD
 <Feb09-2023> <18:04:39>  Old frequency:    -56.53857, new:     56.90646
 <Feb09-2023> <18:04:39>  NOTE: Some frequencies have been re-calculated by numerical differentiation
 <Feb09-2023> <18:04:39>        Check the text output file for new values!
 <Feb09-2023> <18:04:39>  NORMAL TERMINATION
 <Feb09-2023> <18:04:39>  END
