
 *******************************************************************************
 *                                                                             *
 *  -------------------------------------                                      *
 *   Amsterdam Density Functional  (ADF)         2019                          *
 *  -------------------------------------                                      *
 *                                               r74351 2019-04-25             *
 *                                                                             *
 *                                                                             *
 *                            =====================                            *
 *                            |                   |                            *
 *                            |     D I R A C     |                            *
 *                            |                   |                            *
 *                            =====================                            *
 *                                                                             *
 *                                                                             *
 *   Online information and documentation:  https://www.scm.com/support/       *
 *   E-mail:  support@scm.com   info@scm.com                                   *
 *                                                                             *
 *   Scientific publications using ADF results must be properly referenced     *
 *   See the User Manuals (or the web site) for recommended citations          *
 *   The terms and conditions of the End User License Agreement apply to       *
 *   the use of ADF, https://www.scm.com/license-terms/                        *
 *                                                                             *
 **********************  x86_64_linux_intel / intelmpi  ************************
 
 Licensed to: Dr. Carles Bo / Institute of Chemical Research of Catalonia ( (ICIQ) / Tarragona / Spain 2022-11-28 14:37:29
 SCM User ID: u7609
  
 DIRAC 2019  RunTime: Feb09-2023 17:23:39  Nodes: 1  Procs: 1

 Temporary files are created in /scratch/kid_0.1364978454

1
 HYDROGEN ATOM RELATIVISTIC, Point Nuc, A and c from libtc   
 N J RN H ZN XION ANUC CLIGHT
 5000    1100.00000000197.36710137  1.00000000  0.00000000    1.007825  0.1370360E+03
  PH   PHI     EPS        DEL        DELRVR
  0.30  0.30     2500.00  0.00001000  0.00001000
 IDIRC  NC1  NDEBU NPRIN  IPUN IRCOR IWCOR
   1   300     0     0     0     0     0
   XALPHA      XLATTER      RNUC
  0.70000000  0.00000000  0.00000000 Point Charge
   XN   XL   XJ      XE          XZ      XDELL
  1.0  0.0  0.5      -1.000       1.000     0.00000
 ICORP=  0  NPCL=  0  DEMP=0.00  PEPS=0.000000
 R(1)=  0.1000000E-08 D=  0.1005080E+01 RNUC=  0.0000000E+00
 converged at cycle   32  DENSITY AVERAGING    0.2400
  MAXIMUM ERROR IN R.V(R) IS   0.79874357E-05
 Q,EY,EV,EZ,ESUM,ETOT,RHO  0.100000E+01 -0.266614E+00 -0.619969E+00 -0.910779E+00 -0.203940E+00 -0.415998E+00  0.337036E-17


 DIRAC CALCULATION
1                    HYDROGEN ATOM RELATIVISTIC, Point Nuc, A and c from libtc


 EXCHANGE COEFFICIENT=  0.7000000           TAIL CORRECTION=  0.           NUCLEAR RADIUS=  0.000E+00
0                       ORBITAL    N    L    J     ELECTRONS     EIGENVALUE                DELTA OF EIGENV.

                          1S1/2  1.0  0.0  0.5     1.000       -0.2039397E+00                 0.2720093E-06


                                        NUCLEAR CHARGE=    1.000000
                            INTEGRAL OF CHARGE DENSITY=    1.000000
                           SUM OF THE ORBITAL ENERGIES=     -0.2039
                                          TOTAL ENERGY=     -0.4160
                                        KINETIC ENERGY=      0.4160
                             NUCLEAR ATTRACTION ENERGY=     -0.9108
                             ELECTRON REPULSION ENERGY=      0.2787
                                       EXCHANGE ENERGY=     -0.2000

 *******************************************************************************

                             D I R A C   E X I T
 NORMAL TERMINATION



 =================
 Timing Statistics
 =================
  
 Total Used :                     CPU=        0.06      System=        0.00     Elapsed=        0.07

 Calls  Section                     ( Mean, Percentage )
 ---------------------------------------------------------------------------------------------------
     2  ><      ................      0.00    0.00             0.00    0.00             0.00    0.01
     1  EXIT PROCEDURE .........      0.06  100.00             0.00  100.00             0.07   99.99


 Currently Open Files (EXIT00)
 ====================

 Unit    Access Format  Status   Type       Ident (file)
 -------------------------------------------------------
   3      SEQ    FORM   TRANSP  NORMAL      LOGFILE
                                          ( logfile )
 
Create H   file=TZP-H
XC
  GGA PBE
End
relativistic ZORA
Corepotentials t12.rel
End

 *******************************************************************************
 *                                                                             *
 *  -------------------------------------                                      *
 *   Amsterdam Density Functional  (ADF)         2019                          *
 *  -------------------------------------                                      *
 *                                               r74351 2019-04-25             *
 *                                                                             *
 *                                                                             *
 *                              =================                              *
 *                              |               |                              *
 *                              |     A D F     |                              *
 *                              |               |                              *
 *                              =================                              *
 *                                                                             *
 *                                                                             *
 *   Online information and documentation:  https://www.scm.com/support/       *
 *   E-mail:  support@scm.com   info@scm.com                                   *
 *                                                                             *
 *   Scientific publications using ADF results must be properly referenced     *
 *   See the User Manuals (or the web site) for recommended citations          *
 *   The terms and conditions of the End User License Agreement apply to       *
 *   the use of ADF, https://www.scm.com/license-terms/                        *
 *                                                                             *
 **********************  x86_64_linux_intel / intelmpi  ************************
 
 Licensed to: Dr. Carles Bo / Institute of Chemical Research of Catalonia ( (ICIQ) / Tarragona / Spain 2022-11-28 14:37:29
 SCM User ID: u7609
  
 ADF 2019  RunTime: Feb09-2023 17:23:39  Nodes: 1  Procs: 1

 Temporary files are created in /scratch/kid_0.2129996543

 Hydrogen (TZP)



 ===========================
 A T T A C H E D   F I L E S
 ===========================
  
 CREATE - Data File:    TZP-H
                        Hydrogen (TZP)
 Core Potentials:
         file : t12.rel



 ===============================
 M O D E L   P A R A M E T E R S
 ===============================
  
 DENSITY FUNCTIONAL POTENTIAL (scf)
    LDA:                               PW92                                    == Not Default ==
    Gradient Corrections:              PBEc PBEx                               == Not Default ==

 SPIN  (restricted / unrestr.)
    Molecule:                          Restricted                               

 OTHER ASPECTS
    Relativistic Corrections:          scalar (ZORA,MAPA)                      == Not Default ==

    Nuclear Charge Density Model:      Point Charge Nuclei                      
    Core Treatment:                    Frozen Orbital(s)                        

    Hyperfine or Zeeman Interaction:   ---                                      



 =====================================
 S Y M M E T R Y ,   E L E C T R O N S
 =====================================
  
 Symmetry: ATOM

 Irreducible Representations, including subspecies
 -------------------------------------------------
 S
 P:x  P:y  P:z
 D:z2  D:x2-y2  D:xy  D:xz  D:yz
 F:z3  F:z  F:xyz  F:z2x  F:z2y  F:x  F:y


 Configuration of Valence Electrons
 ==================================

          Occupation Numbers
          -------------------------------------------------
 S        1
 P        0
 D        0
 F        0
          -------------------------------------------------

 Total:   1

 Net Charge: 0 (Nuclei minus Electrons)

 Preset values for MO occupations will be applied through SCF cycle no. 1000000
 Thereafter, the program will assign electrons to MOs that are spatially
 similar to the occupied MOs in a "reference" cycle ("KeepOrbitals").
 The reference cycle is always the PREVIOUS cycle: it will evolve with
 the SCF procedure.



 ================================
 (Slater-type)  F U N C T I O N S  ***  (Basis and Fit)  ***
 ================================
  

 Atom Type    1  (H)
 ==============

 Valence Basis Sets:   4
 -----------------------
   1 S    0.690000
   1 S    0.920000
   1 S    1.580000
   2 P    1.250000


 BAS: List of all Elementary Cartesian Basis Functions
 =====================================================

 The numbering in the list below (to the right of the function characteristics) is referred
 to in print-outs of MO eigenvectors and Mulliken populations in the BAS representation
 (as contrasted to the SFO representation).

 Notes:
 1. The functions are characterized by a polynomial prefactor (powers of x,y,z and r) and
    an exponential decay factor alpha.
 2. Since the basis sets are specific for an atom TYPE, the individual functions occur on
    all atoms of that type.
 3. The word 'Core' in the left margin signals that it is a Core Function (CF) : not a
    degree of freedom in the valence set, but only used to ensure orthogonalization of
    the other valence basis functions on the frozen Core Orbitals.


 (power of) X  Y  Z  R     Alpha  on Atom
            ==========     =====     ==========

 H                                    1
                                  ---------------------------------------------------------------------------
            0  0  0  0     0.690      1
            0  0  0  0     0.920      2
            0  0  0  0     1.580      3
            1  0  0  0     1.250      4
            0  1  0  0     1.250      5
            0  0  1  0     1.250      6

 Total number of charge fitting functions (nprimf)        50
 Total number of Cartesian basis functions (naos)          6
 Total number of Cartesian core functions  (ncos)          0



 BAS: List of all Elementary Cartesian Basis Functions
 =====================================================

 The numbering in the list below (to the right of the function characteristics) is referred
 to in print-outs of MO eigenvectors and Mulliken populations in the BAS representation
 (as contrasted to the SFO representation).

 Notes:
 1. The functions are characterized by a polynomial prefactor (powers of x,y,z and r) and
    an exponential decay factor alpha.
 2. Since the basis sets are specific for an atom TYPE, the individual functions occur on
    all atoms of that type.
 3. The word 'Core' in the left margin signals that it is a Core Function (CF) : not a
    degree of freedom in the valence set, but only used to ensure orthogonalization of
    the other valence basis functions on the frozen Core Orbitals.


 (power of) X  Y  Z  R     Alpha  on Atom
            ==========     =====     ==========

 H                                    1
                                  ---------------------------------------------------------------------------
            0  0  0  0     0.690      1
            0  0  0  0     0.920      2
            0  0  0  0     1.580      3
            1  0  0  0     1.250      4
            0  1  0  0     1.250      5
            0  0  1  0     1.250      6
1
 ***************************************************************************************************



                                              ***********************
                                              *  T E C H N I C A L  *
                                              ***********************
  



 =============================================================
 P A R A L L E L I Z A T I O N  and  V E C T O R I Z A T I O N
 =============================================================
  
 Nr of parallel processes:                                1
 Maximum vector length in NumInt loops:                 128



 =====================
 S C F   U P D A T E S
 =====================
  
 Max. nr. of cycles:                               300
 Convergence criterion:                              0.0000000100
   secondary criterion:                              0.0000000100

 Mix parameter (when DIIS does not apply):           0.2000000000
 Special mix parameter for the first cycle:          1.0000000000
 Mixed ADIIS+SDIIS will be used                  
    Max number of expansion vectors:                10
    Pure ADIIS when Max([F,P]) is above              0.1000000000
    Pure SDIIS when Max([F,P]) is below              0.0010000000
 Automatic ElectronSmearing (in case of problematic SCF convergence) disabled



 =================
 P R E C I S I O N  ***  (General: NumInt, NeglectFunctionTails, ...)  ***
 =================
  

 NumInt:           Target precision:                12.0000000000
 -------           Initial precision:               10.0000000000
                   Min. precision (optimization):   10.0000000000

 Neglect Functions:          Basis functions:        0.1000000000E-13
 ------------------          Fit functions:          0.1000000000E-13



 ===========================
 L I N E A R   S C A L I N G
 ===========================
  

 Cut-off radii density fit:                        0.1000000000E-97
 Overlap cut-off criterion AO matrix elements:     0.1000000000E-97
 Cut-offs for Coulomb potential and fitted density:0.1000000000E-97
 Cut-off criterion for Coulomb multipole terms:    0.1000000000E-97
 Progressive Convergence parameter:                 0.000000000    
1
 ***************************************************************************************************



                                            ***************************
                                            *  C O M P U T A T I O N  *
                                            ***************************
  

 Number of elements of the density matrix on this node (used, total):        21        21



 ===========================================
 Numerical Integration : Fuzzy Cells (Becke)
 ===========================================
  
 Becke grid quality: VERYGOOD       
  
 Lebedev angular grid order:             min:  13 max:  41
 Nr. of radial points:                   min:  64 max:  64

 Total nr. of points:         64
 Nr. of blocks:                1
 Block length:                64
 Nr. of dummy points:          0


 Test of Precision of the Numerical Integration Grid
 ===================================================

 Integral of the Total Core Density:                   0.00000000000000



 ========================
 Density Fitting (zlmFit)
 ========================
  
 ZlmFit Fit Quality: VERYGOOD       
  
 Max L-expansion:                        min:   0 max:   0
 Nr. of radial interpolation points:     min: 120 max: 120



 =====
 S C F  ***  ScaSCF  ***
 =====
  

 CYCLE    1
 SCF Error: norm([F,P])=      0.000000000000, max([F,P])=      0.000000000000
 orbitals (Q,E):
 ---------------
 S :1...3            ( 1.00    -0.5000)  ( 0.00    -0.0900)  ( 0.00     1.2936)
 P :1...1            ( 0.00     0.1562)

 CYCLE    2
 SCF Error: norm([F,P])=      0.031537872292, max([F,P])=      0.030110494752
 orbitals (Q,E):
 ---------------
 S :1...2            ( 1.00    -0.2218)  ( 0.00     0.1019)
 P :1...1            ( 0.00     0.4189)

 CYCLE    3
  SDIIS (wt  0.000):  0.1996  0.8004
 A-DIIS (wt  1.000):  0.0000  1.0000
  DIIS coefficients:  0.0000  1.0000
 SCF Error: norm([F,P])=      0.008617989401, max([F,P])=      0.008343029399
 orbitals (Q,E):
 ---------------
 S :1...2            ( 1.00    -0.2422)  ( 0.00     0.0889)
 P :1...1            ( 0.00     0.4024)

 CYCLE    4
  SDIIS (wt  0.993):  0.1666  0.8334
 A-DIIS (wt  0.007):  0.0000  1.0000
  DIIS coefficients:  0.1654  0.8346
 SCF Error: norm([F,P])=      0.001732350026, max([F,P])=      0.001718616814
 orbitals (Q,E):
 ---------------
 S :1...2            ( 1.00    -0.2385)  ( 0.00     0.0908)
 P :1...1            ( 0.00     0.4054)

 CYCLE    5
  SDIIS (wt  1.000):  0.0236  0.9764
  DIIS coefficients:  0.0236  0.9764
 SCF Error: norm([F,P])=      0.000043673449, max([F,P])=      0.000039769875
 orbitals (Q,E):
 ---------------
 S :1...2            ( 1.00    -0.2386)  ( 0.00     0.0908)
 P :1...1            ( 0.00     0.4054)

 CYCLE    6
  SDIIS (wt  1.000): -0.0577  1.0577
  DIIS coefficients: -0.0577  1.0577
 SCF Error: norm([F,P])=      0.000002383805, max([F,P])=      0.000002158128
 orbitals (Q,E):
 ---------------
 S :1...2            ( 1.00    -0.2386)  ( 0.00     0.0908)
 P :1...1            ( 0.00     0.4054)

 CYCLE    7
  SDIIS (wt  1.000): -0.0032  1.0032
  DIIS coefficients: -0.0032  1.0032
 SCF Error: norm([F,P])=      0.000000007721, max([F,P])=      0.000000007228
 orbitals (Q,E):
 ---------------
 S :1...2            ( 1.00    -0.2386)  ( 0.00     0.0908)
 P :1...1            ( 0.00     0.4054)

 SCF CONVERGED

 CYCLE    8
1
 ***************************************************************************************************



                                                *******************
                                                *  R E S U L T S  *
                                                *******************
  
 *** Using FIT density in Focky
  SDIIS (wt  1.000):  0.0192  0.9808
  DIIS coefficients:  0.0192  0.9808
 SCF Error: norm([F,P])=      0.000000000151, max([F,P])=      0.000000000141

 Scaled ZORA Orbital Energies, per Irrep and Spin:
 =================================================
                        Occup              E (au)              E (eV)       Diff (eV) with prev. cycle
                        -----      --------------------        ------       --------------------------
 S
               1        1.000     -0.23861775226993E+00        -6.493               7.43E-09
               2        0.000      0.90791701709251E-01         2.471
               3        0.000      0.15217530108908E+01        41.409
 P
               1        0.000      0.40537978060393E+00        11.031


 Partially Occupied:
               1 S                -0.23861775226993E+00
  
 LUMO :        2 S                 0.90791701709251E-01
  


 Orbital Energies, all Irreps
 ========================================

 Irrep        no.  (spin)   Occup              E (au)                E (eV)
 ---------------------------------------------------------------------------
 S             1             1.00       -0.23861775226993E+00        -6.4931
 S             2             0.00        0.90791701709251E-01         2.4706
 P             1             0.00        0.40537978060393E+00        11.0309
 S             3             0.00        0.15217530108908E+01        41.4090


 All Electron Calculation, thus no Orbital Energies of the Core Orbitals are calculated



 =======================================
 M U L L I K E N   P O P U L A T I O N S
 =======================================
  
 The survey below gives for each atom:
 a) the total charge (Z minus electrons)
 b) the net spin polarization (nr of electrons spin-A minus spin-B)
 c) for each spin the atomic electron valence density (integrated) per L-value.

 Atom              Charge    Spin density          S         P         D         F
 ----              ------    ------------       ------    ------    ------    ------
 1 H              -0.0000                       1.0000    0.0000    0.0000    0.0000

 Populations of individual BAS functions
 ----------------------------------------
 1 H            0.2104  0.6788  0.1107  0.0000  0.0000  0.0000

 Gross Charges per Atom (Z minus electrons)
 ==========================================
            -0.0000
 Net Total: -0.00000000



 =======================================================================
 Electrostatic potential at the Nuclei due to electrons and other nuclei
 =======================================================================
  
         Atom                  Potential
         ----                  ---------
     1)   H                   0.94468022
 
 
 ========================
 No memory problems found
 ========================
 
 Maximum number of active allocate calls:         306
 
 *******************************************************************************

                             A D F   E X I T
 NORMAL TERMINATION



 =================
 Timing Statistics
 =================
  
 Total Used :                     CPU=        0.31      System=        0.03     Elapsed=        0.38

 Calls  Section                     ( Mean, Percentage )
 ---------------------------------------------------------------------------------------------------
     3  ><      ................      0.00    0.00             0.00    0.00             0.00    1.16
     1  INIT    ................      0.06   20.78             0.00   12.50             0.08   20.71
     1  GEOMET  ................      0.01    2.60             0.01   37.50             0.02    6.51
     1  INPUTA  ................      0.00    0.00             0.00   12.50             0.00    0.88
     1  MAINSY  ................      0.01    2.60             0.00   12.50             0.01    3.41
     1  SYMFIT  ................      0.00    0.00             0.00    0.00             0.00    0.41
     1  CORORT  ................      0.00    0.00             0.00    0.00             0.00    0.32
     1  SYMORB  ................      0.00    0.00             0.00    0.00             0.00    0.19
     1  CLSMAT  ................      0.01    2.60             0.00    0.00             0.00    1.29
     1  ORTHON  ................      0.00    1.30             0.00    0.00             0.00    1.25
     1  GENPT   ................      0.01    2.60             0.00    0.00             0.01    3.09
     1  PTBAS   ................      0.00    1.30             0.00    0.00             0.00    1.25
     8  FOCKY   ................      0.02   50.65             0.00   12.50             0.02   44.28
     8  FOCKTR  ................      0.00    0.00             0.00    0.00             0.00    1.12
     8  SDIIS   ................      0.00    7.79             0.00    0.00             0.00    5.44
     1  COREPS  ................      0.01    2.60             0.00   12.50             0.01    3.64
     1  POPAN   ................      0.00    1.30             0.00    0.00             0.00    1.17
     1  DEBYE   ................      0.00    0.00             0.00    0.00             0.00    0.49
     1  EXIT PROCEDURE .........      0.01    3.90             0.00    0.00             0.01    3.39


 Currently Open Files (EXIT00)
 ====================

 Unit    Access Format  Status   Type       Ident (file)
 -------------------------------------------------------
   3      SEQ    FORM   TRANSP  NORMAL      LOGFILE
                                          ( logfile )

 ***************************************************************************************************
 (LOGFILE)
 <Feb09-2023> <17:23:39>  DIRAC 2019  RunTime: Feb09-2023 17:23:39  Nodes: 1  Procs: 1
 <Feb09-2023> <17:23:39>  NORMAL TERMINATION
 <Feb09-2023> <17:23:39>  END
 <Feb09-2023> <17:23:39>  ADF 2019  RunTime: Feb09-2023 17:23:39  Nodes: 1  Procs: 1
 <Feb09-2023> <17:23:39>  Hydrogen (TZP)
 <Feb09-2023> <17:23:39>  RunType   : CREATE
 <Feb09-2023> <17:23:39>  Net Charge: 0 (Nuclei minus Electrons)
 <Feb09-2023> <17:23:39>  Symmetry  : ATOM
  Coordinates
    Atom         X           Y           Z   (Angstrom)
    1.H         0.000000    0.000000    0.000000
 <Feb09-2023> <17:23:39>  >>>> CORORT
 <Feb09-2023> <17:23:39>  >>>> CLSMAT
 <Feb09-2023> <17:23:39>  >>>> ORTHON
 <Feb09-2023> <17:23:39>  >>>> GENPT
 <Feb09-2023> <17:23:39>  Block Length=  64
 <Feb09-2023> <17:23:39>  >>>> PTBAS
 <Feb09-2023> <17:23:39>  >>>> CYCLE
 <Feb09-2023> <17:23:39>              |Error|         MaxErr       Wt(A-DIIS)
 <Feb09-2023> <17:23:39>      1      0.00000000      0.00000000
 <Feb09-2023> <17:23:39>      2      0.03153787      0.03011049
 <Feb09-2023> <17:23:39>      3      0.00861799      0.00834303    100.0
 <Feb09-2023> <17:23:39>      4      0.00173235      0.00171862      0.7
 <Feb09-2023> <17:23:39>      5      0.00004367      0.00003977      0.0
 <Feb09-2023> <17:23:39>      6      0.00000238      0.00000216      0.0
 <Feb09-2023> <17:23:39>      7      0.00000001      0.00000001      0.0
 <Feb09-2023> <17:23:39>  SCF converged
 <Feb09-2023> <17:23:39>      8      0.00000000      0.00000000      0.0
 <Feb09-2023> <17:23:40>  >>>> POPAN
 <Feb09-2023> <17:23:40>  >>>> DEBYE
 <Feb09-2023> <17:23:40>  NORMAL TERMINATION
 <Feb09-2023> <17:23:40>  END

 *******************************************************************************
 *                                                                             *
 *  -------------------------------------                                      *
 *   Amsterdam Density Functional  (ADF)         2019                          *
 *  -------------------------------------                                      *
 *                                               r74351 2019-04-25             *
 *                                                                             *
 *                                                                             *
 *                            =====================                            *
 *                            |                   |                            *
 *                            |     D I R A C     |                            *
 *                            |                   |                            *
 *                            =====================                            *
 *                                                                             *
 *                                                                             *
 *   Online information and documentation:  https://www.scm.com/support/       *
 *   E-mail:  support@scm.com   info@scm.com                                   *
 *                                                                             *
 *   Scientific publications using ADF results must be properly referenced     *
 *   See the User Manuals (or the web site) for recommended citations          *
 *   The terms and conditions of the End User License Agreement apply to       *
 *   the use of ADF, https://www.scm.com/license-terms/                        *
 *                                                                             *
 **********************  x86_64_linux_intel / intelmpi  ************************
 
 Licensed to: Dr. Carles Bo / Institute of Chemical Research of Catalonia ( (ICIQ) / Tarragona / Spain 2022-11-28 14:37:29
 SCM User ID: u7609
  
 DIRAC 2019  RunTime: Feb09-2023 17:23:40  Nodes: 1  Procs: 1

 Temporary files are created in /scratch/kid_0.92053555

1
 MOLYBDENUM ATOM 3d CORE RELATIVISTIC, Point Nuc, A and c fro
 N J RN H ZN XION ANUC CLIGHT
 5000   15100.00000000197.36710137 42.00000000  0.00000000   97.905406  0.1370360E+03
  PH   PHI     EPS        DEL        DELRVR
  0.30  0.30     2500.00  0.00001000  0.00001000
 IDIRC  NC1  NDEBU NPRIN  IPUN IRCOR IWCOR
   1   300     0     0     0     0     9
   XALPHA      XLATTER      RNUC
  0.70000000  0.00000000  0.00000000 Point Charge
   XN   XL   XJ      XE          XZ      XDELL
  1.0  0.0  0.5   -1500.000       2.000     0.00000
  2.0  0.0  0.5    -325.000       2.000     0.00000
  2.0  1.0  0.5    -325.000       2.000     0.00000
  2.0  1.0  1.5    -325.000       4.000     0.00000
  3.0  0.0  0.5     -70.000       2.000     0.00000
  3.0  1.0  0.5     -70.000       2.000     0.00000
  3.0  1.0  1.5     -70.000       4.000     0.00000
  3.0  2.0  1.5     -60.000       4.000     0.00000
  3.0  2.0  2.5     -60.000       6.000     0.00000
  4.0  0.0  0.5     -10.000       2.000     0.00000
  4.0  1.0  0.5     -10.000       2.000     0.00000
  4.0  1.0  1.5     -10.000       4.000     0.00000
  4.0  2.0  1.5      -1.000       4.000     0.00000
  4.0  2.0  2.5      -1.000       1.000     0.00000
  5.0  0.0  0.5      -0.500       1.000     0.00000
 ICORP=  0  NPCL=  0  DEMP=0.00  PEPS=0.000000
 R(1)=  0.1000000E-08 D=  0.1005080E+01 RNUC=  0.0000000E+00
 converged at cycle   41  DENSITY AVERAGING    0.2400
  MAXIMUM ERROR IN R.V(R) IS   0.93203452E-05
 Q,EY,EV,EZ,ESUM,ETOT,RHO  0.420000E+02 -0.161898E+03 -0.662509E+04 -0.978397E+04 -0.242700E+04 -0.404691E+04  0.342495E-11


 DIRAC CALCULATION
1                    MOLYBDENUM ATOM 3d CORE RELATIVISTIC, Point Nuc, A and c from libtc


 EXCHANGE COEFFICIENT=  0.7000000           TAIL CORRECTION=  0.           NUCLEAR RADIUS=  0.000E+00
0                       ORBITAL    N    L    J     ELECTRONS     EIGENVALUE                DELTA OF EIGENV.

                          1S1/2  1.0  0.0  0.5     2.000       -0.7276812E+03                 0.2822496E-04
                          2S1/2  2.0  0.0  0.5     2.000       -0.1028194E+03                 0.1725465E-04
                          2P1/2  2.0  1.0  0.5     2.000       -0.9468016E+02                 0.1864325E-04
                          2P3/2  2.0  1.0  1.5     4.000       -0.9076266E+02                 0.1832345E-04
                          3S1/2  3.0  0.0  0.5     2.000       -0.1747094E+02                 0.5979346E-05
                          3P1/2  3.0  1.0  0.5     2.000       -0.1436574E+02                 0.6275079E-05
                          3P3/2  3.0  1.0  1.5     4.000       -0.1371946E+02                 0.5984426E-05
                          3D3/2  3.0  2.0  1.5     4.000       -0.8203697E+01                 0.6709395E-05
                          3D5/2  3.0  2.0  2.5     6.000       -0.8081013E+01                 0.6610438E-05
                          4S1/2  4.0  0.0  0.5     2.000       -0.2338238E+01                 0.2446887E-06
                          4P1/2  4.0  1.0  0.5     2.000       -0.1452045E+01                 0.2971982E-06
                          4P3/2  4.0  1.0  1.5     4.000       -0.1358936E+01                 0.3186552E-06
                          4D3/2  4.0  2.0  1.5     4.000       -0.1184046E+00                 0.3378248E-06
                          4D5/2  4.0  2.0  2.5     1.000       -0.1108976E+00                 0.3342679E-06
                          5S1/2  5.0  0.0  0.5     1.000       -0.1320069E+00                 0.9757102E-07


                                        NUCLEAR CHARGE=   42.000000
                            INTEGRAL OF CHARGE DENSITY=   42.000000
                           SUM OF THE ORBITAL ENERGIES=  -2426.9970
                                          TOTAL ENERGY=  -4046.9128
                                        KINETIC ENERGY=   4198.0886
                             NUCLEAR ATTRACTION ENERGY=  -9783.9685
                             ELECTRON REPULSION ENERGY=   1660.3903
                                       EXCHANGE ENERGY=   -121.4232

 *******************************************************************************

                             D I R A C   E X I T
 NORMAL TERMINATION



 =================
 Timing Statistics
 =================
  
 Total Used :                     CPU=        0.36      System=        0.00     Elapsed=        0.38

 Calls  Section                     ( Mean, Percentage )
 ---------------------------------------------------------------------------------------------------
     2  ><      ................      0.00    0.00             0.00    0.00             0.00    0.00
     1  EXIT PROCEDURE .........      0.36  100.00             0.00    0.00             0.38  100.00


 Currently Open Files (EXIT00)
 ====================

 Unit    Access Format  Status   Type       Ident (file)
 -------------------------------------------------------
   3      SEQ    FORM   TRANSP  NORMAL      LOGFILE
                                          ( logfile )
 
Create Mo   file=TZP-Mo.3d
XC
  GGA PBE
End
relativistic ZORA
Corepotentials t12.rel
End

 *******************************************************************************
 *                                                                             *
 *  -------------------------------------                                      *
 *   Amsterdam Density Functional  (ADF)         2019                          *
 *  -------------------------------------                                      *
 *                                               r74351 2019-04-25             *
 *                                                                             *
 *                                                                             *
 *                              =================                              *
 *                              |               |                              *
 *                              |     A D F     |                              *
 *                              |               |                              *
 *                              =================                              *
 *                                                                             *
 *                                                                             *
 *   Online information and documentation:  https://www.scm.com/support/       *
 *   E-mail:  support@scm.com   info@scm.com                                   *
 *                                                                             *
 *   Scientific publications using ADF results must be properly referenced     *
 *   See the User Manuals (or the web site) for recommended citations          *
 *   The terms and conditions of the End User License Agreement apply to       *
 *   the use of ADF, https://www.scm.com/license-terms/                        *
 *                                                                             *
 **********************  x86_64_linux_intel / intelmpi  ************************
 
 Licensed to: Dr. Carles Bo / Institute of Chemical Research of Catalonia ( (ICIQ) / Tarragona / Spain 2022-11-28 14:37:29
 SCM User ID: u7609
  
 ADF 2019  RunTime: Feb09-2023 17:23:40  Nodes: 1  Procs: 1

 Temporary files are created in /scratch/kid_0.1402893974

 Molybdenum (TZP, 3d frozen)



 ===========================
 A T T A C H E D   F I L E S
 ===========================
  
 CREATE - Data File:    TZP-Mo.3d
                        Molybdenum (TZP, 3d frozen)
 Core Potentials:
         file : t12.rel



 ===============================
 M O D E L   P A R A M E T E R S
 ===============================
  
 DENSITY FUNCTIONAL POTENTIAL (scf)
    LDA:                               PW92                                    == Not Default ==
    Gradient Corrections:              PBEc PBEx                               == Not Default ==

 SPIN  (restricted / unrestr.)
    Molecule:                          Restricted                               

 OTHER ASPECTS
    Relativistic Corrections:          scalar (ZORA,MAPA)                      == Not Default ==

    Nuclear Charge Density Model:      Point Charge Nuclei                      
    Core Treatment:                    Frozen Orbital(s)                        

    Hyperfine or Zeeman Interaction:   ---                                      



 =====================================
 S Y M M E T R Y ,   E L E C T R O N S
 =====================================
  
 Symmetry: ATOM

 Irreducible Representations, including subspecies
 -------------------------------------------------
 S
 P:x  P:y  P:z
 D:z2  D:x2-y2  D:xy  D:xz  D:yz
 F:z3  F:z  F:xyz  F:z2x  F:z2y  F:x  F:y


 Configuration of Valence Electrons
 ==================================

          Occupation Numbers
          -------------------------------------------------
 S        2 1
 P        6
 D        5
 F        0
          -------------------------------------------------

 Total:   14

 Net Charge: 0 (Nuclei minus Electrons)

 Preset values for MO occupations will be applied through SCF cycle no. 1000000
 Thereafter, the program will assign electrons to MOs that are spatially
 similar to the occupied MOs in a "reference" cycle ("KeepOrbitals").
 The reference cycle is always the PREVIOUS cycle: it will evolve with
 the SCF procedure.



 ================================
 (Slater-type)  F U N C T I O N S  ***  (Basis and Fit)  ***
 ================================
  

 Atom Type    1  (Mo)
 ==============

 Valence Basis Sets:  18
 -----------------------
   1 S   30.500000
   2 S   17.750000
   3 S    8.350000
   2 P   18.600000
   3 P    8.700000
   3 D   10.050000
   4 S    5.100000
   4 S    3.300000
   5 S    2.150000
   5 S    1.350000
   5 S    0.870000
   4 P    4.950000
   4 P    3.300000
   4 P    2.300000
   4 D    3.500000
   4 D    1.850000
   4 D    0.970000
   5 P    1.350000

 Frozen Core Shells
 ------------------
    S:  3
    P:  2
    D:  1


 BAS: List of all Elementary Cartesian Basis Functions
 =====================================================

 The numbering in the list below (to the right of the function characteristics) is referred
 to in print-outs of MO eigenvectors and Mulliken populations in the BAS representation
 (as contrasted to the SFO representation).

 Notes:
 1. The functions are characterized by a polynomial prefactor (powers of x,y,z and r) and
    an exponential decay factor alpha.
 2. Since the basis sets are specific for an atom TYPE, the individual functions occur on
    all atoms of that type.
 3. The word 'Core' in the left margin signals that it is a Core Function (CF) : not a
    degree of freedom in the valence set, but only used to ensure orthogonalization of
    the other valence basis functions on the frozen Core Orbitals.


 (power of) X  Y  Z  R     Alpha  on Atom
            ==========     =====     ==========

 Mo                                   1
                                  ---------------------------------------------------------------------------
    Core    0  0  0  0    30.500      1
    Core    0  0  0  1    17.750      2
    Core    0  0  0  2     8.350      3
    Core    1  0  0  0    18.600      4
    Core    0  1  0  0    18.600      5
    Core    0  0  1  0    18.600      6
    Core    1  0  0  1     8.700      7
    Core    0  1  0  1     8.700      8
    Core    0  0  1  1     8.700      9
    Core    2  0  0  0    10.050     10
    Core    1  1  0  0    10.050     11
    Core    1  0  1  0    10.050     12
    Core    0  2  0  0    10.050     13
    Core    0  1  1  0    10.050     14
    Core    0  0  2  0    10.050     15
            0  0  0  3     5.100     16
            0  0  0  3     3.300     17
            0  0  0  4     2.150     18
            0  0  0  4     1.350     19
            0  0  0  4     0.870     20
            1  0  0  2     4.950     21
            0  1  0  2     4.950     22
            0  0  1  2     4.950     23
            1  0  0  2     3.300     24
            0  1  0  2     3.300     25
            0  0  1  2     3.300     26
            1  0  0  2     2.300     27
            0  1  0  2     2.300     28
            0  0  1  2     2.300     29
            2  0  0  1     3.500     30
            1  1  0  1     3.500     31
            1  0  1  1     3.500     32
            0  2  0  1     3.500     33
            0  1  1  1     3.500     34
            0  0  2  1     3.500     35
            2  0  0  1     1.850     36
            1  1  0  1     1.850     37
            1  0  1  1     1.850     38
            0  2  0  1     1.850     39
            0  1  1  1     1.850     40
            0  0  2  1     1.850     41
            2  0  0  1     0.970     42
            1  1  0  1     0.970     43
            1  0  1  1     0.970     44
            0  2  0  1     0.970     45
            0  1  1  1     0.970     46
            0  0  2  1     0.970     47
            1  0  0  3     1.350     48
            0  1  0  3     1.350     49
            0  0  1  3     1.350     50

 Total number of charge fitting functions (nprimf)       230
 Total number of Cartesian basis functions (naos)         50
 Total number of Cartesian core functions  (ncos)         15



 BAS: List of all Elementary Cartesian Basis Functions
 =====================================================

 The numbering in the list below (to the right of the function characteristics) is referred
 to in print-outs of MO eigenvectors and Mulliken populations in the BAS representation
 (as contrasted to the SFO representation).

 Notes:
 1. The functions are characterized by a polynomial prefactor (powers of x,y,z and r) and
    an exponential decay factor alpha.
 2. Since the basis sets are specific for an atom TYPE, the individual functions occur on
    all atoms of that type.
 3. The word 'Core' in the left margin signals that it is a Core Function (CF) : not a
    degree of freedom in the valence set, but only used to ensure orthogonalization of
    the other valence basis functions on the frozen Core Orbitals.


 (power of) X  Y  Z  R     Alpha  on Atom
            ==========     =====     ==========

 Mo                                   1
                                  ---------------------------------------------------------------------------
    Core    0  0  0  0    30.500      1
    Core    0  0  0  1    17.750      2
    Core    0  0  0  2     8.350      3
    Core    1  0  0  0    18.600      4
    Core    0  1  0  0    18.600      5
    Core    0  0  1  0    18.600      6
    Core    1  0  0  1     8.700      7
    Core    0  1  0  1     8.700      8
    Core    0  0  1  1     8.700      9
    Core    2  0  0  0    10.050     10
    Core    1  1  0  0    10.050     11
    Core    1  0  1  0    10.050     12
    Core    0  2  0  0    10.050     13
    Core    0  1  1  0    10.050     14
    Core    0  0  2  0    10.050     15
            0  0  0  3     5.100     16
            0  0  0  3     3.300     17
            0  0  0  4     2.150     18
            0  0  0  4     1.350     19
            0  0  0  4     0.870     20
            1  0  0  2     4.950     21
            0  1  0  2     4.950     22
            0  0  1  2     4.950     23
            1  0  0  2     3.300     24
            0  1  0  2     3.300     25
            0  0  1  2     3.300     26
            1  0  0  2     2.300     27
            0  1  0  2     2.300     28
            0  0  1  2     2.300     29
            2  0  0  1     3.500     30
            1  1  0  1     3.500     31
            1  0  1  1     3.500     32
            0  2  0  1     3.500     33
            0  1  1  1     3.500     34
            0  0  2  1     3.500     35
            2  0  0  1     1.850     36
            1  1  0  1     1.850     37
            1  0  1  1     1.850     38
            0  2  0  1     1.850     39
            0  1  1  1     1.850     40
            0  0  2  1     1.850     41
            2  0  0  1     0.970     42
            1  1  0  1     0.970     43
            1  0  1  1     0.970     44
            0  2  0  1     0.970     45
            0  1  1  1     0.970     46
            0  0  2  1     0.970     47
            1  0  0  3     1.350     48
            0  1  0  3     1.350     49
            0  0  1  3     1.350     50
1
 ***************************************************************************************************



                                              ***********************
                                              *  T E C H N I C A L  *
                                              ***********************
  



 =============================================================
 P A R A L L E L I Z A T I O N  and  V E C T O R I Z A T I O N
 =============================================================
  
 Nr of parallel processes:                                1
 Maximum vector length in NumInt loops:                 128



 =====================
 S C F   U P D A T E S
 =====================
  
 Max. nr. of cycles:                               300
 Convergence criterion:                              0.0000000100
   secondary criterion:                              0.0000000100

 Mix parameter (when DIIS does not apply):           0.2000000000
 Special mix parameter for the first cycle:          1.0000000000
 Mixed ADIIS+SDIIS will be used                  
    Max number of expansion vectors:                10
    Pure ADIIS when Max([F,P]) is above              0.1000000000
    Pure SDIIS when Max([F,P]) is below              0.0010000000
 Automatic ElectronSmearing (in case of problematic SCF convergence) disabled



 =================
 P R E C I S I O N  ***  (General: NumInt, NeglectFunctionTails, ...)  ***
 =================
  

 NumInt:           Target precision:                12.0000000000
 -------           Initial precision:               10.0000000000
                   Min. precision (optimization):   10.0000000000

 Neglect Functions:          Basis functions:        0.1000000000E-13
 ------------------          Fit functions:          0.1000000000E-13



 ===========================
 L I N E A R   S C A L I N G
 ===========================
  

 Cut-off radii density fit:                        0.1000000000E-97
 Overlap cut-off criterion AO matrix elements:     0.1000000000E-97
 Cut-offs for Coulomb potential and fitted density:0.1000000000E-97
 Cut-off criterion for Coulomb multipole terms:    0.1000000000E-97
 Progressive Convergence parameter:                 0.000000000    
1
 ***************************************************************************************************



                                            ***************************
                                            *  C O M P U T A T I O N  *
                                            ***************************
  

 Number of elements of the density matrix on this node (used, total):      1275      1275



 ===========================================
 Numerical Integration : Fuzzy Cells (Becke)
 ===========================================
  
 Becke grid quality: VERYGOOD       
  
 Lebedev angular grid order:             min:  13 max:  41
 Nr. of radial points:                   min: 106 max: 106

 Total nr. of points:        106
 Nr. of blocks:                1
 Block length:               106
 Nr. of dummy points:          0


 Test of Precision of the Numerical Integration Grid
 ===================================================

 Integral of the Total Core Density:                  28.00000000969493
 Relative Error:                                       3.462E-10



 ========================
 Density Fitting (zlmFit)
 ========================
  
 ZlmFit Fit Quality: VERYGOOD       
  
 Max L-expansion:                        min:   0 max:   0
 Nr. of radial interpolation points:     min: 230 max: 230



 =====
 S C F  ***  ScaSCF  ***
 =====
  

 CYCLE    1
 SCF Error: norm([F,P])=      0.000000000000, max([F,P])=      0.000000000000
 orbitals (Q,E):
 ---------------
 S :1...5            ( 2.00   -11.6814)  ( 1.00    -6.3532)  ( 0.00    -3.9976)  ( 0.00    -2.6589)
                     ( 0.00    -1.7000)
 P :1...4            ( 6.00   -10.5018)  ( 0.00    -5.8212)  ( 0.00    -3.6400)  ( 0.00    -2.5070)
 D :1...3            ( 5.00    -8.4786)  ( 0.00    -4.5701)  ( 0.00    -2.4939)

 CYCLE    2
  SDIIS (wt  0.000):  1.0000  0.0000
 A-DIIS (wt  1.000):  0.1286  0.8714
  DIIS coefficients:  0.1286  0.8714
 SCF Error: norm([F,P])=      7.148790686087, max([F,P])=      2.364314963741
 orbitals (Q,E):
 ---------------
 S :1...3            ( 2.00    -1.8793)  ( 1.00    -0.4080)  ( 0.00    -0.1761)
 P :1...2            ( 6.00    -1.0989)  ( 0.00    -0.2723)
 D :1...2            ( 5.00    -0.2758)  ( 0.00    -0.0263)

 CYCLE    3
  SDIIS (wt  0.000):  0.3519  0.6481
 A-DIIS (wt  1.000):  0.2376  0.7624
  DIIS coefficients:  0.2376  0.7624
 SCF Error: norm([F,P])=      4.212278243430, max([F,P])=      1.568530983970
 orbitals (Q,E):
 ---------------
 S :1...3            ( 2.00    -3.0898)  ( 1.00    -0.3551)  ( 0.00    -0.0106)
 P :1...2            ( 6.00    -2.0988)  ( 0.00    -0.1560)
 D :1...2            ( 5.00    -0.6568)  ( 0.00     0.0486)

 CYCLE    4
  SDIIS (wt  0.000): -0.0802  0.2380  0.8422
 A-DIIS (wt  1.000):  0.0000  0.2131  0.7869
  DIIS coefficients:  0.0000  0.2131  0.7869
 SCF Error: norm([F,P])=      1.823310320672, max([F,P])=      0.621470068658
 orbitals (Q,E):
 ---------------
 S :1...3            ( 2.00    -2.1329)  ( 1.00    -0.1098)  ( 0.00     0.0530)
 P :1...2            ( 6.00    -1.2112)  ( 0.00     0.0122)
 D :1...2            ( 5.00    -0.0245)  ( 0.00     0.1765)

 CYCLE    5
  SDIIS (wt  0.000): -0.0246 -0.0857  0.3373  0.7730
 A-DIIS (wt  1.000):  0.0000  0.0000  0.3000  0.7000
  DIIS coefficients:  0.0000  0.0000  0.3000  0.7000
 SCF Error: norm([F,P])=      1.058828219057, max([F,P])=      0.362553371378
 orbitals (Q,E):
 ---------------
 S :1...3            ( 2.00    -2.5065)  ( 1.00    -0.1954)  ( 0.00     0.0191)
 P :1...2            ( 6.00    -1.5530)  ( 0.00    -0.0541)
 D :1...2            ( 5.00    -0.2373)  ( 0.00     0.1039)

 CYCLE    6
  SDIIS (wt  0.000):  0.0107 -0.0168 -0.1404  0.2233  0.9231
 A-DIIS (wt  1.000):  0.0000  0.0000  0.0000  0.1685  0.8315
  DIIS coefficients:  0.0000  0.0000  0.0000  0.1685  0.8315
 SCF Error: norm([F,P])=      0.386302370665, max([F,P])=      0.125926487743
 orbitals (Q,E):
 ---------------
 S :1...3            ( 2.00    -2.2911)  ( 1.00    -0.1348)  ( 0.00     0.0380)
 P :1...2            ( 6.00    -1.3509)  ( 0.00    -0.0079)
 D :1...2            ( 5.00    -0.0948)  ( 0.00     0.1449)

 CYCLE    7
  SDIIS (wt  0.044): -0.0008  0.0043  0.0172 -0.1816  0.1952  0.9657
 A-DIIS (wt  0.956):  0.0000  0.0000  0.0000  0.0000  0.3526  0.6474
  DIIS coefficients: -0.0000  0.0002  0.0008 -0.0081  0.3456  0.6615
 SCF Error: norm([F,P])=      0.284734623559, max([F,P])=      0.095612429384
 orbitals (Q,E):
 ---------------
 S :1...3            ( 2.00    -2.3844)  ( 1.00    -0.1556)  ( 0.00     0.0295)
 P :1...2            ( 6.00    -1.4366)  ( 0.00    -0.0239)
 D :1...2            ( 5.00    -0.1494)  ( 0.00     0.1281)

 CYCLE    8
  SDIIS (wt  0.772):  0.0000  0.0002 -0.0034 -0.0193  0.0076  0.2482  0.7667
 A-DIIS (wt  0.228):  0.0000  0.0000  0.0000  0.0000  0.0000  0.0289  0.9711
  DIIS coefficients:  0.0000  0.0002 -0.0026 -0.0149  0.0058  0.1982  0.8133
 SCF Error: norm([F,P])=      0.070427042512, max([F,P])=      0.023581757016
 orbitals (Q,E):
 ---------------
 S :1...3            ( 2.00    -2.3580)  ( 1.00    -0.1494)  ( 0.00     0.0311)
 P :1...2            ( 6.00    -1.4122)  ( 0.00    -0.0192)
 D :1...2            ( 5.00    -0.1332)  ( 0.00     0.1325)

 CYCLE    9
  SDIIS (wt  0.929): -0.0000 -0.0000  0.0002  0.0020 -0.0040 -0.0349  0.1906  0.8461
 A-DIIS (wt  0.071):  0.0000  0.0000  0.0000  0.0000  0.0000  0.0000  0.1077  0.8923
  DIIS coefficients: -0.0000 -0.0000  0.0002  0.0018 -0.0037 -0.0324  0.1847  0.8494
 SCF Error: norm([F,P])=      0.024021634807, max([F,P])=      0.008070140854
 orbitals (Q,E):
 ---------------
 S :1...3            ( 2.00    -2.3650)  ( 1.00    -0.1511)  ( 0.00     0.0305)
 P :1...2            ( 6.00    -1.4187)  ( 0.00    -0.0205)
 D :1...2            ( 5.00    -0.1375)  ( 0.00     0.1313)

 CYCLE   10
  SDIIS (wt  1.000):  0.0000  0.0000 -0.0000 -0.0003  0.0006  0.0038 -0.0155  1.0114
  DIIS coefficients:  0.0000  0.0000 -0.0000 -0.0003  0.0006  0.0038 -0.0155  1.0114
 SCF Error: norm([F,P])=      0.001691537232, max([F,P])=      0.000569379855
 orbitals (Q,E):
 ---------------
 S :1...3            ( 2.00    -2.3645)  ( 1.00    -0.1510)  ( 0.00     0.0305)
 P :1...2            ( 6.00    -1.4182)  ( 0.00    -0.0204)
 D :1...2            ( 5.00    -0.1372)  ( 0.00     0.1314)

 CYCLE   11
  SDIIS (wt  1.000):  0.0000 -0.0000  0.0000  0.0002 -0.0008 -0.0102 -0.0868  1.0976
  DIIS coefficients:  0.0000 -0.0000  0.0000  0.0002 -0.0008 -0.0102 -0.0868  1.0976
 SCF Error: norm([F,P])=      0.000000816018, max([F,P])=      0.000000266639
 orbitals (Q,E):
 ---------------
 S :1...3            ( 2.00    -2.3645)  ( 1.00    -0.1510)  ( 0.00     0.0305)
 P :1...2            ( 6.00    -1.4182)  ( 0.00    -0.0204)
 D :1...2            ( 5.00    -0.1372)  ( 0.00     0.1314)

 CYCLE   12
  SDIIS (wt  1.000): -0.0000  0.0000  0.0001  0.0011  0.0118  0.9869
  DIIS coefficients: -0.0000  0.0000  0.0001  0.0011  0.0118  0.9869
 SCF Error: norm([F,P])=      0.000000024268, max([F,P])=      0.000000008564
 orbitals (Q,E):
 ---------------
 S :1...3            ( 2.00    -2.3645)  ( 1.00    -0.1510)  ( 0.00     0.0305)
 P :1...2            ( 6.00    -1.4182)  ( 0.00    -0.0204)
 D :1...2            ( 5.00    -0.1372)  ( 0.00     0.1314)

 SCF CONVERGED

 CYCLE   13
1
 ***************************************************************************************************



                                                *******************
                                                *  R E S U L T S  *
                                                *******************
  
 *** Using FIT density in Focky
  SDIIS (wt  1.000):  0.0000  0.0000 -0.0009 -0.0131  1.0139
  DIIS coefficients:  0.0000  0.0000 -0.0009 -0.0131  1.0139
 SCF Error: norm([F,P])=      0.000000001716, max([F,P])=      0.000000000646

 Scaled ZORA Orbital Energies, per Irrep and Spin:
 =================================================
                        Occup              E (au)              E (eV)       Diff (eV) with prev. cycle
                        -----      --------------------        ------       --------------------------
 S
               1        2.000     -0.23645412461087E+01       -64.342               1.08E-08
               2        1.000     -0.15095063251582E+00        -4.108               1.52E-08
               3        0.000      0.30491108737404E-01         0.830
               4        0.000      0.39955981712578E+00        10.873
               5        0.000      0.28259043504195E+01        76.897
 P
               1        6.000     -0.14182481541156E+01       -38.592               1.24E-08
               2        0.000     -0.20381990593673E-01        -0.555
               3        0.000      0.61122831684606E+00        16.632
               4        0.000      0.40294008516846E+01       109.646
 D
               1        5.000     -0.13719857998971E+00        -3.733               1.57E-08
               2        0.000      0.13138303481334E+00         3.575
               3        0.000      0.10915573963069E+01        29.703


 Partially Occupied:
               2 S                -0.15095063251582E+00
               1 D                -0.13719857998971E+00
  
 HOMO :        1 P                -0.14182481541156E+01
 LUMO :        2 P                -0.20381990593673E-01
  


 Orbital Energies, all Irreps
 ========================================

 Irrep        no.  (spin)   Occup              E (au)                E (eV)
 ---------------------------------------------------------------------------
 S             1             2.00       -0.23645412461087E+01       -64.3424
 P             1             6.00       -0.14182481541156E+01       -38.5925
 S             2             1.00       -0.15095063251582E+00        -4.1076
 D             1             5.00       -0.13719857998971E+00        -3.7334
 P             2             0.00       -0.20381990593673E-01        -0.5546
 S             3             0.00        0.30491108737404E-01         0.8297
 D             2             0.00        0.13138303481334E+00         3.5751
 S             4             0.00        0.39955981712578E+00        10.8726
 P             3             0.00        0.61122831684606E+00        16.6324
 D             3             0.00        0.10915573963069E+01        29.7028
 S             5             0.00        0.28259043504195E+01        76.8968
 P             4             0.00        0.40294008516846E+01       109.6456


 Scaled ZORA Orbital Energies of the Core Orbitals:
 ==================================================

 (Note that the atoms are grouped by atomtype, see the labels, and may hence NOT be in input order)

 AtomType  Orbital  Atom                   E (au)                        E (eV)
 --------  -------  ----           --------------------        ----------------
 Mo          1S        1          -0.72810156987753E+03              -19812.652
             2S        1          -0.10281078869890E+03               -2797.624
             3S        1          -0.17490063510859E+02                -475.929
             2P        1          -0.91890973277880E+02               -2500.481
             3P        1          -0.13936907885645E+02                -379.243
             3D        1          -0.81284558211672E+01                -221.187



 =======================================
 M U L L I K E N   P O P U L A T I O N S
 =======================================
  
 The survey below gives for each atom:
 a) the total charge (Z minus electrons)
 b) the net spin polarization (nr of electrons spin-A minus spin-B)
 c) for each spin the atomic electron valence density (integrated) per L-value.

 Atom              Charge    Spin density          S         P         D         F
 ----              ------    ------------       ------    ------    ------    ------
 1 Mo              0.0000                       3.0000    6.0000    5.0000    0.0000

 Populations of individual BAS functions
 ----------------------------------------
 1 Mo          -0.0051  0.0033 -0.0315  0.0008  0.0008  0.0008  0.0345  0.0345  0.0345  0.0153
                0.0230  0.0230  0.0153  0.0230  0.0153  1.3114  0.7310  0.3903  0.5032  0.0973
                0.7293  0.7293  0.7293  1.1024  1.1024  1.1024  0.1310  0.1310  0.1310  0.2744
                0.4116  0.4116  0.2744  0.4116  0.2744  0.3155  0.4732  0.4732  0.3155  0.4732
                0.3155  0.0615  0.0922  0.0922  0.0615  0.0922  0.0615  0.0019  0.0019  0.0019

 Gross Charges per Atom (Z minus electrons)
 ==========================================
             0.0000
 Net Total:  0.00000000



 =======================================================================
 Electrostatic potential at the Nuclei due to electrons and other nuclei
 =======================================================================
  
         Atom                  Potential
         ----                  ---------
     1)   Mo                232.78835403
 
 
 ========================
 No memory problems found
 ========================
 
 Maximum number of active allocate calls:         389
 
 *******************************************************************************

                             A D F   E X I T
 NORMAL TERMINATION



 =================
 Timing Statistics
 =================
  
 Total Used :                     CPU=        0.68      System=        0.02     Elapsed=        0.74

 Calls  Section                     ( Mean, Percentage )
 ---------------------------------------------------------------------------------------------------
     3  ><      ................      0.00    0.00             0.00    0.00             0.00    0.53
     1  INIT    ................      0.06    9.36             0.00   20.00             0.08   10.44
     1  GEOMET  ................      0.02    2.34             0.00   20.00             0.03    3.39
     1  INPUTA  ................      0.00    0.58             0.00   20.00             0.00    0.48
     1  MAINSY  ................      0.02    2.34             0.00    0.00             0.02    2.46
     1  SYMFIT  ................      0.00    0.00             0.00    0.00             0.00    0.21
     1  CORORT  ................      0.00    0.00             0.00    0.00             0.00    0.24
     1  SYMORB  ................      0.00    0.58             0.00    0.00             0.00    0.13
     1  CLSMAT  ................      0.00    0.58             0.00    0.00             0.01    0.72
     1  ORTHON  ................      0.00    0.00             0.00    0.00             0.01    0.73
     1  GENPT   ................      0.02    3.51             0.00    0.00             0.02    2.80
     1  PTBAS   ................      0.00    0.00             0.00   20.00             0.01    0.74
    13  FOCKY   ................      0.04   67.25             0.00   20.00             0.04   63.65
    13  FOCKTR  ................      0.00    1.17             0.00    0.00             0.00    1.09
    13  SDIIS   ................      0.00    4.09             0.00    0.00             0.00    4.84
     1  COREPS  ................      0.04    5.26             0.00    0.00             0.03    4.53
     1  POPAN   ................      0.00    0.58             0.00    0.00             0.01    0.68
     1  DEBYE   ................      0.00    0.00             0.00    0.00             0.00    0.27
     1  EXIT PROCEDURE .........      0.02    2.34             0.00    0.00             0.02    2.09


 Currently Open Files (EXIT00)
 ====================

 Unit    Access Format  Status   Type       Ident (file)
 -------------------------------------------------------
   3      SEQ    FORM   TRANSP  NORMAL      LOGFILE
                                          ( logfile )

 ***************************************************************************************************
 (LOGFILE)
 <Feb09-2023> <17:23:39>  DIRAC 2019  RunTime: Feb09-2023 17:23:39  Nodes: 1  Procs: 1
 <Feb09-2023> <17:23:39>  NORMAL TERMINATION
 <Feb09-2023> <17:23:39>  END
 <Feb09-2023> <17:23:39>  ADF 2019  RunTime: Feb09-2023 17:23:39  Nodes: 1  Procs: 1
 <Feb09-2023> <17:23:39>  Hydrogen (TZP)
 <Feb09-2023> <17:23:39>  RunType   : CREATE
 <Feb09-2023> <17:23:39>  Net Charge: 0 (Nuclei minus Electrons)
 <Feb09-2023> <17:23:39>  Symmetry  : ATOM
  Coordinates
    Atom         X           Y           Z   (Angstrom)
    1.H         0.000000    0.000000    0.000000
 <Feb09-2023> <17:23:39>  >>>> CORORT
 <Feb09-2023> <17:23:39>  >>>> CLSMAT
 <Feb09-2023> <17:23:39>  >>>> ORTHON
 <Feb09-2023> <17:23:39>  >>>> GENPT
 <Feb09-2023> <17:23:39>  Block Length=  64
 <Feb09-2023> <17:23:39>  >>>> PTBAS
 <Feb09-2023> <17:23:39>  >>>> CYCLE
 <Feb09-2023> <17:23:39>              |Error|         MaxErr       Wt(A-DIIS)
 <Feb09-2023> <17:23:39>      1      0.00000000      0.00000000
 <Feb09-2023> <17:23:39>      2      0.03153787      0.03011049
 <Feb09-2023> <17:23:39>      3      0.00861799      0.00834303    100.0
 <Feb09-2023> <17:23:39>      4      0.00173235      0.00171862      0.7
 <Feb09-2023> <17:23:39>      5      0.00004367      0.00003977      0.0
 <Feb09-2023> <17:23:39>      6      0.00000238      0.00000216      0.0
 <Feb09-2023> <17:23:39>      7      0.00000001      0.00000001      0.0
 <Feb09-2023> <17:23:39>  SCF converged
 <Feb09-2023> <17:23:39>      8      0.00000000      0.00000000      0.0
 <Feb09-2023> <17:23:40>  >>>> POPAN
 <Feb09-2023> <17:23:40>  >>>> DEBYE
 <Feb09-2023> <17:23:40>  NORMAL TERMINATION
 <Feb09-2023> <17:23:40>  END
 <Feb09-2023> <17:23:40>  DIRAC 2019  RunTime: Feb09-2023 17:23:40  Nodes: 1  Procs: 1
 <Feb09-2023> <17:23:40>  NORMAL TERMINATION
 <Feb09-2023> <17:23:40>  END
 <Feb09-2023> <17:23:40>  ADF 2019  RunTime: Feb09-2023 17:23:40  Nodes: 1  Procs: 1
 <Feb09-2023> <17:23:40>  Molybdenum (TZP, 3d frozen)
 <Feb09-2023> <17:23:40>  RunType   : CREATE
 <Feb09-2023> <17:23:40>  Net Charge: 0 (Nuclei minus Electrons)
 <Feb09-2023> <17:23:40>  Symmetry  : ATOM
  Coordinates
    Atom         X           Y           Z   (Angstrom)
    1.Mo        0.000000    0.000000    0.000000
 <Feb09-2023> <17:23:40>  >>>> CORORT
 <Feb09-2023> <17:23:40>  >>>> CLSMAT
 <Feb09-2023> <17:23:40>  >>>> ORTHON
 <Feb09-2023> <17:23:40>  >>>> GENPT
 <Feb09-2023> <17:23:40>  Block Length= 106
 <Feb09-2023> <17:23:40>  >>>> PTBAS
 <Feb09-2023> <17:23:40>  >>>> CYCLE
 <Feb09-2023> <17:23:40>              |Error|         MaxErr       Wt(A-DIIS)
 <Feb09-2023> <17:23:40>      1      0.00000000      0.00000000
 <Feb09-2023> <17:23:40>      2      7.14879069      2.36431496    100.0
 <Feb09-2023> <17:23:40>      3      4.21227824      1.56853098    100.0
 <Feb09-2023> <17:23:40>      4      1.82331032      0.62147007    100.0
 <Feb09-2023> <17:23:40>      5      1.05882822      0.36255337    100.0
 <Feb09-2023> <17:23:41>      6      0.38630237      0.12592649    100.0
 <Feb09-2023> <17:23:41>      7      0.28473462      0.09561243     95.6
 <Feb09-2023> <17:23:41>      8      0.07042704      0.02358176     22.8
 <Feb09-2023> <17:23:41>      9      0.02402163      0.00807014      7.1
 <Feb09-2023> <17:23:41>     10      0.00169154      0.00056938      0.0
 <Feb09-2023> <17:23:41>     11      0.00000082      0.00000027      0.0
 <Feb09-2023> <17:23:41>     12      0.00000002      0.00000001      0.0
 <Feb09-2023> <17:23:41>  SCF converged
 <Feb09-2023> <17:23:41>     13      0.00000000      0.00000000      0.0
 <Feb09-2023> <17:23:41>  >>>> POPAN
 <Feb09-2023> <17:23:41>  >>>> DEBYE
 <Feb09-2023> <17:23:41>  NORMAL TERMINATION
 <Feb09-2023> <17:23:41>  END

 *******************************************************************************
 *                                                                             *
 *  -------------------------------------                                      *
 *   Amsterdam Density Functional  (ADF)         2019                          *
 *  -------------------------------------                                      *
 *                                               r74351 2019-04-25             *
 *                                                                             *
 *                                                                             *
 *                            =====================                            *
 *                            |                   |                            *
 *                            |     D I R A C     |                            *
 *                            |                   |                            *
 *                            =====================                            *
 *                                                                             *
 *                                                                             *
 *   Online information and documentation:  https://www.scm.com/support/       *
 *   E-mail:  support@scm.com   info@scm.com                                   *
 *                                                                             *
 *   Scientific publications using ADF results must be properly referenced     *
 *   See the User Manuals (or the web site) for recommended citations          *
 *   The terms and conditions of the End User License Agreement apply to       *
 *   the use of ADF, https://www.scm.com/license-terms/                        *
 *                                                                             *
 **********************  x86_64_linux_intel / intelmpi  ************************
 
 Licensed to: Dr. Carles Bo / Institute of Chemical Research of Catalonia ( (ICIQ) / Tarragona / Spain 2022-11-28 14:37:29
 SCM User ID: u7609
  
 DIRAC 2019  RunTime: Feb09-2023 17:23:41  Nodes: 1  Procs: 1

 Temporary files are created in /scratch/kid_0.396160476

1
 OXYGEN ATOM 1s CORE RELATIVISTIC, Point Nuc, A and c from li
 N J RN H ZN XION ANUC CLIGHT
 5000    4100.00000000197.36710137  8.00000000  0.00000000   15.994914  0.1370360E+03
  PH   PHI     EPS        DEL        DELRVR
  0.30  0.30     2500.00  0.00001000  0.00001000
 IDIRC  NC1  NDEBU NPRIN  IPUN IRCOR IWCOR
   1   300     0     0     0     0     1
   XALPHA      XLATTER      RNUC
  0.70000000  0.00000000  0.00000000 Point Charge
   XN   XL   XJ      XE          XZ      XDELL
  1.0  0.0  0.5      -5.000       2.000     0.00000
  2.0  0.0  0.5      -1.000       2.000     0.00000
  2.0  1.0  0.5      -1.000       2.000     0.00000
  2.0  1.0  1.5      -1.000       2.000     0.00000
 ICORP=  0  NPCL=  0  DEMP=0.00  PEPS=0.000000
 R(1)=  0.1000000E-08 D=  0.1005080E+01 RNUC=  0.0000000E+00
 converged at cycle   28  DENSITY AVERAGING    0.2400
  MAXIMUM ERROR IN R.V(R) IS   0.81125670E-05
 Q,EY,EV,EZ,ESUM,ETOT,RHO  0.800000E+01 -0.101247E+02 -0.114961E+03 -0.177573E+03 -0.405053E+02 -0.743427E+02  0.414766E-14


 DIRAC CALCULATION
1                    OXYGEN ATOM 1s CORE RELATIVISTIC, Point Nuc, A and c from libtc


 EXCHANGE COEFFICIENT=  0.7000000           TAIL CORRECTION=  0.           NUCLEAR RADIUS=  0.000E+00
0                       ORBITAL    N    L    J     ELECTRONS     EIGENVALUE                DELTA OF EIGENV.

                          1S1/2  1.0  0.0  0.5     2.000       -0.1880014E+02                 0.7264358E-06
                          2S1/2  2.0  0.0  0.5     2.000       -0.8412236E+00                 0.5932752E-05
                          2P1/2  2.0  1.0  0.5     2.000       -0.3063203E+00                 0.5998471E-05
                          2P3/2  2.0  1.0  1.5     2.000       -0.3049609E+00                 0.5986971E-05


                                        NUCLEAR CHARGE=    8.000000
                            INTEGRAL OF CHARGE DENSITY=    8.000000
                           SUM OF THE ORBITAL ENERGIES=    -40.5053
                                          TOTAL ENERGY=    -74.3427
                                        KINETIC ENERGY=     74.4552
                             NUCLEAR ATTRACTION ENERGY=   -177.5730
                             ELECTRON REPULSION ENERGY=     36.3686
                                       EXCHANGE ENERGY=     -7.5935

 *******************************************************************************

                             D I R A C   E X I T
 NORMAL TERMINATION



 =================
 Timing Statistics
 =================
  
 Total Used :                     CPU=        0.10      System=        0.01     Elapsed=        0.12

 Calls  Section                     ( Mean, Percentage )
 ---------------------------------------------------------------------------------------------------
     2  ><      ................      0.00    0.00             0.00    0.00             0.00    0.01
     1  EXIT PROCEDURE .........      0.10  100.00             0.01  100.00             0.12   99.99


 Currently Open Files (EXIT00)
 ====================

 Unit    Access Format  Status   Type       Ident (file)
 -------------------------------------------------------
   3      SEQ    FORM   TRANSP  NORMAL      LOGFILE
                                          ( logfile )
 
Create O   file=TZP-O.1s
XC
  GGA PBE
End
relativistic ZORA
Corepotentials t12.rel
End

 *******************************************************************************
 *                                                                             *
 *  -------------------------------------                                      *
 *   Amsterdam Density Functional  (ADF)         2019                          *
 *  -------------------------------------                                      *
 *                                               r74351 2019-04-25             *
 *                                                                             *
 *                                                                             *
 *                              =================                              *
 *                              |               |                              *
 *                              |     A D F     |                              *
 *                              |               |                              *
 *                              =================                              *
 *                                                                             *
 *                                                                             *
 *   Online information and documentation:  https://www.scm.com/support/       *
 *   E-mail:  support@scm.com   info@scm.com                                   *
 *                                                                             *
 *   Scientific publications using ADF results must be properly referenced     *
 *   See the User Manuals (or the web site) for recommended citations          *
 *   The terms and conditions of the End User License Agreement apply to       *
 *   the use of ADF, https://www.scm.com/license-terms/                        *
 *                                                                             *
 **********************  x86_64_linux_intel / intelmpi  ************************
 
 Licensed to: Dr. Carles Bo / Institute of Chemical Research of Catalonia ( (ICIQ) / Tarragona / Spain 2022-11-28 14:37:29
 SCM User ID: u7609
  
 ADF 2019  RunTime: Feb09-2023 17:23:41  Nodes: 1  Procs: 1

 Temporary files are created in /scratch/kid_0.2054858514

 Oxygen (TZP, 1s frozen)



 ===========================
 A T T A C H E D   F I L E S
 ===========================
  
 CREATE - Data File:    TZP-O.1s
                        Oxygen (TZP, 1s frozen)
 Core Potentials:
         file : t12.rel



 ===============================
 M O D E L   P A R A M E T E R S
 ===============================
  
 DENSITY FUNCTIONAL POTENTIAL (scf)
    LDA:                               PW92                                    == Not Default ==
    Gradient Corrections:              PBEc PBEx                               == Not Default ==

 SPIN  (restricted / unrestr.)
    Molecule:                          Restricted                               

 OTHER ASPECTS
    Relativistic Corrections:          scalar (ZORA,MAPA)                      == Not Default ==

    Nuclear Charge Density Model:      Point Charge Nuclei                      
    Core Treatment:                    Frozen Orbital(s)                        

    Hyperfine or Zeeman Interaction:   ---                                      



 =====================================
 S Y M M E T R Y ,   E L E C T R O N S
 =====================================
  
 Symmetry: ATOM

 Irreducible Representations, including subspecies
 -------------------------------------------------
 S
 P:x  P:y  P:z
 D:z2  D:x2-y2  D:xy  D:xz  D:yz
 F:z3  F:z  F:xyz  F:z2x  F:z2y  F:x  F:y


 Configuration of Valence Electrons
 ==================================

          Occupation Numbers
          -------------------------------------------------
 S        2
 P        4
 D        0
 F        0
          -------------------------------------------------

 Total:   6

 Net Charge: 0 (Nuclei minus Electrons)

 Preset values for MO occupations will be applied through SCF cycle no. 1000000
 Thereafter, the program will assign electrons to MOs that are spatially
 similar to the occupied MOs in a "reference" cycle ("KeepOrbitals").
 The reference cycle is always the PREVIOUS cycle: it will evolve with
 the SCF procedure.



 ================================
 (Slater-type)  F U N C T I O N S  ***  (Basis and Fit)  ***
 ================================
  

 Atom Type    1  (O)
 ==============

 Valence Basis Sets:   8
 -----------------------
   1 S    7.360000
   2 S    1.720000
   2 S    2.880000
   2 S    7.580000
   2 P    1.120000
   2 P    2.080000
   2 P    4.080000
   3 D    2.000000

 Frozen Core Shells
 ------------------
    S:  1


 BAS: List of all Elementary Cartesian Basis Functions
 =====================================================

 The numbering in the list below (to the right of the function characteristics) is referred
 to in print-outs of MO eigenvectors and Mulliken populations in the BAS representation
 (as contrasted to the SFO representation).

 Notes:
 1. The functions are characterized by a polynomial prefactor (powers of x,y,z and r) and
    an exponential decay factor alpha.
 2. Since the basis sets are specific for an atom TYPE, the individual functions occur on
    all atoms of that type.
 3. The word 'Core' in the left margin signals that it is a Core Function (CF) : not a
    degree of freedom in the valence set, but only used to ensure orthogonalization of
    the other valence basis functions on the frozen Core Orbitals.


 (power of) X  Y  Z  R     Alpha  on Atom
            ==========     =====     ==========

 O                                    1
                                  ---------------------------------------------------------------------------
    Core    0  0  0  0     7.360      1
            0  0  0  1     1.720      2
            0  0  0  1     2.880      3
            0  0  0  1     7.580      4
            1  0  0  0     1.120      5
            0  1  0  0     1.120      6
            0  0  1  0     1.120      7
            1  0  0  0     2.080      8
            0  1  0  0     2.080      9
            0  0  1  0     2.080     10
            1  0  0  0     4.080     11
            0  1  0  0     4.080     12
            0  0  1  0     4.080     13
            2  0  0  0     2.000     14
            1  1  0  0     2.000     15
            1  0  1  0     2.000     16
            0  2  0  0     2.000     17
            0  1  1  0     2.000     18
            0  0  2  0     2.000     19

 Total number of charge fitting functions (nprimf)        82
 Total number of Cartesian basis functions (naos)         19
 Total number of Cartesian core functions  (ncos)          1



 BAS: List of all Elementary Cartesian Basis Functions
 =====================================================

 The numbering in the list below (to the right of the function characteristics) is referred
 to in print-outs of MO eigenvectors and Mulliken populations in the BAS representation
 (as contrasted to the SFO representation).

 Notes:
 1. The functions are characterized by a polynomial prefactor (powers of x,y,z and r) and
    an exponential decay factor alpha.
 2. Since the basis sets are specific for an atom TYPE, the individual functions occur on
    all atoms of that type.
 3. The word 'Core' in the left margin signals that it is a Core Function (CF) : not a
    degree of freedom in the valence set, but only used to ensure orthogonalization of
    the other valence basis functions on the frozen Core Orbitals.


 (power of) X  Y  Z  R     Alpha  on Atom
            ==========     =====     ==========

 O                                    1
                                  ---------------------------------------------------------------------------
    Core    0  0  0  0     7.360      1
            0  0  0  1     1.720      2
            0  0  0  1     2.880      3
            0  0  0  1     7.580      4
            1  0  0  0     1.120      5
            0  1  0  0     1.120      6
            0  0  1  0     1.120      7
            1  0  0  0     2.080      8
            0  1  0  0     2.080      9
            0  0  1  0     2.080     10
            1  0  0  0     4.080     11
[...]
 <Feb09-2023> <17:35:51>      5      0.28717755      0.04241442    100.0
 <Feb09-2023> <17:35:52>      6      0.51250223      0.08474850    100.0
 <Feb09-2023> <17:35:53>      7      0.12212151      0.01871972     17.9
 <Feb09-2023> <17:35:54>      8      0.06314353      0.00983126      8.9
 <Feb09-2023> <17:35:54>      9      0.03820556      0.00792376      7.0
 <Feb09-2023> <17:35:55>     10      0.01314751      0.00200222      1.0
 <Feb09-2023> <17:35:56>     11      0.00434873      0.00076399      0.0
 <Feb09-2023> <17:35:57>     12      0.00189268      0.00042898      0.0
 <Feb09-2023> <17:35:58>     13      0.00055384      0.00012713      0.0
 <Feb09-2023> <17:35:58>     14      0.00120860      0.00017694      0.0
 <Feb09-2023> <17:35:59>     15      0.00022451      0.00003071      0.0
 <Feb09-2023> <17:36:00>     16      0.00005397      0.00000919      0.0
 <Feb09-2023> <17:36:01>     17      0.00002716      0.00000379      0.0
 <Feb09-2023> <17:36:01>     18      0.00001153      0.00000180      0.0
 <Feb09-2023> <17:36:02>     19      0.00000496      0.00000091      0.0
 <Feb09-2023> <17:36:02>  SCF converged
 <Feb09-2023> <17:36:03>     20      0.00000317      0.00000051      0.0
 <Feb09-2023> <17:36:03>  >>>> TOTEN
 <Feb09-2023> <17:36:03>  >>>> POPAN
 <Feb09-2023> <17:36:03>  >>>> DEBYE
 <Feb09-2023> <17:36:03>  >>>> ENGRAD
 <Feb09-2023> <17:36:05>  Old frequency:   -125.38126, new:    209.56894
 <Feb09-2023> <17:36:05>  Geometry symmetry displacement    3 out of    8
  Coordinates in Geometry Cycle 3
    Atom         X           Y           Z   (Angstrom)
    1.O        -2.473366   -0.649179   -1.045232
    2.O        -0.970009    1.807821   -0.273642
    3.Mo       -2.679401    1.146512   -0.472043
    4.Mo       -1.019214   -1.822003   -1.336734
    5.O         0.484112   -0.802558   -1.057385
    6.Mo        0.822723    1.053438   -0.505226
    7.O        -1.083916   -3.353267   -0.317584
    8.O         1.725240    1.904583   -1.666598
    9.O         1.734634    1.131168    0.925974
   10.O        -3.456123    2.039228   -1.666777
   11.O        -3.609288    1.307245    1.097151
   12.O        -1.032807   -2.392982   -2.921745
   13.H        -0.973559   -3.248601    0.661433
   14.H        -4.437813    1.843853    1.157757
 <Feb09-2023> <17:36:05>  >>>> CORORT
 <Feb09-2023> <17:36:05>  >>>> CLSMAT
 <Feb09-2023> <17:36:05>  >>>> ORTHON
 <Feb09-2023> <17:36:05>  >>>> GENPT
 <Feb09-2023> <17:36:05>  Block Length= 128
 <Feb09-2023> <17:36:06>  >>>> PTBAS
 <Feb09-2023> <17:36:06>  combining surface points...
 <Feb09-2023> <17:36:06>  combining surface points...
 <Feb09-2023> <17:36:06>  combining surface points...
 <Feb09-2023> <17:36:06>  >>>> CYCLE
 <Feb09-2023> <17:36:07>              |Error|         MaxErr       Wt(A-DIIS)
 <Feb09-2023> <17:36:07>      1      0.23382191      0.03424428
 <Feb09-2023> <17:36:08>      2      1.59235380      0.28380584    100.0
 <Feb09-2023> <17:36:09>      3      0.54019707      0.09240399    100.0
 <Feb09-2023> <17:36:10>      4      0.16018807      0.01984784     19.0
 <Feb09-2023> <17:36:11>      5      0.28949833      0.04310505    100.0
 <Feb09-2023> <17:36:12>      6      0.50780590      0.08389206    100.0
 <Feb09-2023> <17:36:12>      7      0.12084143      0.01845802     17.6
 <Feb09-2023> <17:36:13>      8      0.06547912      0.01118465     10.3
 <Feb09-2023> <17:36:14>      9      0.03979106      0.00834782      7.4
 <Feb09-2023> <17:36:15>     10      0.01420673      0.00205785      1.1
 <Feb09-2023> <17:36:16>     11      0.00425752      0.00071657      0.0
 <Feb09-2023> <17:36:17>     12      0.00189812      0.00042337      0.0
 <Feb09-2023> <17:36:17>     13      0.00056328      0.00013065      0.0
 <Feb09-2023> <17:36:18>     14      0.00132460      0.00020179      0.0
 <Feb09-2023> <17:36:19>     15      0.00022866      0.00003289      0.0
 <Feb09-2023> <17:36:20>     16      0.00005103      0.00000820      0.0
 <Feb09-2023> <17:36:20>     17      0.00002854      0.00000451      0.0
 <Feb09-2023> <17:36:21>     18      0.00001103      0.00000189      0.0
 <Feb09-2023> <17:36:22>     19      0.00000393      0.00000061      0.0
 <Feb09-2023> <17:36:22>  SCF converged
 <Feb09-2023> <17:36:22>     20      0.00000136      0.00000022      0.0
 <Feb09-2023> <17:36:23>  >>>> TOTEN
 <Feb09-2023> <17:36:23>  >>>> POPAN
 <Feb09-2023> <17:36:23>  >>>> DEBYE
 <Feb09-2023> <17:36:23>  >>>> ENGRAD
 <Feb09-2023> <17:36:25>  Geometry symmetry displacement    4 out of    8
  Coordinates in Geometry Cycle 3
    Atom         X           Y           Z   (Angstrom)
    1.O        -2.473353   -0.649438   -1.044306
    2.O        -0.970021    1.808577   -0.275847
    3.Mo       -2.679383    1.146557   -0.472115
    4.Mo       -1.019197   -1.822041   -1.336657
    5.O         0.484109   -0.803012   -1.055728
    6.Mo        0.822704    1.053454   -0.505196
    7.O        -1.084355   -3.354259   -0.319004
    8.O         1.726095    1.903516   -1.666674
    9.O         1.733786    1.132116    0.926485
   10.O        -3.457548    2.038365   -1.666591
   11.O        -3.607883    1.307670    1.097861
   12.O        -1.032499   -2.391461   -2.922238
   13.H        -0.973712   -3.250651    0.660081
   14.H        -4.436902    1.843462    1.158896
 <Feb09-2023> <17:36:25>  >>>> CORORT
 <Feb09-2023> <17:36:25>  >>>> CLSMAT
 <Feb09-2023> <17:36:25>  >>>> ORTHON
 <Feb09-2023> <17:36:25>  >>>> GENPT
 <Feb09-2023> <17:36:25>  Block Length= 128
 <Feb09-2023> <17:36:25>  >>>> PTBAS
 <Feb09-2023> <17:36:26>  combining surface points...
 <Feb09-2023> <17:36:26>  combining surface points...
 <Feb09-2023> <17:36:26>  combining surface points...
 <Feb09-2023> <17:36:26>  >>>> CYCLE
 <Feb09-2023> <17:36:27>              |Error|         MaxErr       Wt(A-DIIS)
 <Feb09-2023> <17:36:27>      1      0.23361735      0.03421618
 <Feb09-2023> <17:36:28>      2      1.59078804      0.28343862    100.0
 <Feb09-2023> <17:36:29>      3      0.53661183      0.09173589    100.0
 <Feb09-2023> <17:36:30>      4      0.16079610      0.02039243     19.6
 <Feb09-2023> <17:36:30>      5      0.28529190      0.04216893    100.0
 <Feb09-2023> <17:36:31>      6      0.51549818      0.08606984    100.0
 <Feb09-2023> <17:36:32>      7      0.12632087      0.01890461     18.1
 <Feb09-2023> <17:36:33>      8      0.06492397      0.01112935     10.2
 <Feb09-2023> <17:36:34>      9      0.04092292      0.00755140      6.6
 <Feb09-2023> <17:36:35>     10      0.01236083      0.00198230      1.0
 <Feb09-2023> <17:36:36>     11      0.00450579      0.00080503      0.0
 <Feb09-2023> <17:36:36>     12      0.00184047      0.00042614      0.0
 <Feb09-2023> <17:36:37>     13      0.00055790      0.00012662      0.0
 <Feb09-2023> <17:36:38>     14      0.00107695      0.00015342      0.0
 <Feb09-2023> <17:36:39>     15      0.00022055      0.00003130      0.0
 <Feb09-2023> <17:36:39>     16      0.00005762      0.00001034      0.0
 <Feb09-2023> <17:36:40>     17      0.00002467      0.00000373      0.0
 <Feb09-2023> <17:36:41>     18      0.00001192      0.00000147      0.0
 <Feb09-2023> <17:36:42>     19      0.00000604      0.00000105      0.0
 <Feb09-2023> <17:36:42>     20      0.00000417      0.00000059      0.0
 <Feb09-2023> <17:36:42>  SCF converged
 <Feb09-2023> <17:36:43>     21      0.00000455      0.00000096      0.0
 <Feb09-2023> <17:36:43>  >>>> TOTEN
 <Feb09-2023> <17:36:44>  >>>> POPAN
 <Feb09-2023> <17:36:44>  >>>> DEBYE
 <Feb09-2023> <17:36:44>  >>>> ENGRAD
 <Feb09-2023> <17:36:45>  Old frequency:   -107.09480, new:    187.05943
 <Feb09-2023> <17:36:45>  Geometry symmetry displacement    5 out of    8
  Coordinates in Geometry Cycle 3
    Atom         X           Y           Z   (Angstrom)
    1.O        -2.473169   -0.649010   -1.045590
    2.O        -0.969992    1.808332   -0.275070
    3.Mo       -2.679368    1.146517   -0.472168
    4.Mo       -1.019019   -1.822019   -1.336690
    5.O         0.484305   -0.802858   -1.056656
    6.Mo        0.822704    1.053477   -0.505207
    7.O        -1.085518   -3.353347   -0.317768
    8.O         1.725771    1.904105   -1.666515
    9.O         1.734008    1.131762    0.926344
   10.O        -3.457328    2.039119   -1.666190
   11.O        -3.608120    1.306537    1.097779
   12.O        -1.032974   -2.392609   -2.921851
   13.H        -0.971066   -3.249533    0.660869
   14.H        -4.436954    1.842577    1.159144
 <Feb09-2023> <17:36:46>  >>>> CORORT
 <Feb09-2023> <17:36:46>  >>>> CLSMAT
 <Feb09-2023> <17:36:46>  >>>> ORTHON
 <Feb09-2023> <17:36:46>  >>>> GENPT
 <Feb09-2023> <17:36:46>  Block Length= 128
 <Feb09-2023> <17:36:46>  >>>> PTBAS
 <Feb09-2023> <17:36:46>  combining surface points...
 <Feb09-2023> <17:36:46>  combining surface points...
 <Feb09-2023> <17:36:46>  combining surface points...
 <Feb09-2023> <17:36:46>  >>>> CYCLE
 <Feb09-2023> <17:36:47>              |Error|         MaxErr       Wt(A-DIIS)
 <Feb09-2023> <17:36:47>      1      0.23387693      0.03425979
 <Feb09-2023> <17:36:48>      2      1.59265616      0.28396135    100.0
 <Feb09-2023> <17:36:49>      3      0.54019304      0.09242922    100.0
 <Feb09-2023> <17:36:50>      4      0.16028729      0.01988544     19.1
 <Feb09-2023> <17:36:51>      5      0.28927263      0.04304248    100.0
 <Feb09-2023> <17:36:52>      6      0.50854360      0.08403104    100.0
 <Feb09-2023> <17:36:53>      7      0.12091122      0.01851047     17.7
 <Feb09-2023> <17:36:54>      8      0.06520790      0.01102094     10.1
 <Feb09-2023> <17:36:54>      9      0.03958049      0.00831189      7.4
 <Feb09-2023> <17:36:55>     10      0.01411769      0.00205570      1.1
 <Feb09-2023> <17:36:56>     11      0.00426415      0.00072024      0.0
 <Feb09-2023> <17:36:57>     12      0.00189884      0.00042390      0.0
 <Feb09-2023> <17:36:58>     13      0.00056212      0.00013025      0.0
 <Feb09-2023> <17:36:58>     14      0.00131676      0.00020020      0.0
 <Feb09-2023> <17:36:59>     15      0.00022831      0.00003272      0.0
 <Feb09-2023> <17:37:00>     16      0.00005121      0.00000826      0.0
 <Feb09-2023> <17:37:01>     17      0.00002851      0.00000445      0.0
 <Feb09-2023> <17:37:01>     18      0.00001109      0.00000189      0.0
 <Feb09-2023> <17:37:02>     19      0.00000400      0.00000063      0.0
 <Feb09-2023> <17:37:02>  SCF converged
 <Feb09-2023> <17:37:03>     20      0.00000148      0.00000024      0.0
 <Feb09-2023> <17:37:03>  >>>> TOTEN
 <Feb09-2023> <17:37:03>  >>>> POPAN
 <Feb09-2023> <17:37:03>  >>>> DEBYE
 <Feb09-2023> <17:37:03>  >>>> ENGRAD
 <Feb09-2023> <17:37:05>  Geometry symmetry displacement    6 out of    8
  Coordinates in Geometry Cycle 3
    Atom         X           Y           Z   (Angstrom)
    1.O        -2.473550   -0.649606   -1.043948
    2.O        -0.970038    1.808066   -0.274419
    3.Mo       -2.679416    1.146552   -0.471990
    4.Mo       -1.019392   -1.822025   -1.336702
    5.O         0.483917   -0.802712   -1.056457
    6.Mo        0.822723    1.053414   -0.505215
    7.O        -1.082754   -3.354179   -0.318820
    8.O         1.725563    1.903993   -1.666757
    9.O         1.734411    1.131522    0.926114
   10.O        -3.456343    2.038474   -1.667178
   11.O        -3.609051    1.308378    1.097233
   12.O        -1.032332   -2.391834   -2.922132
   13.H        -0.976205   -3.249719    0.660644
   14.H        -4.437761    1.844737    1.157509
 <Feb09-2023> <17:37:05>  >>>> CORORT
 <Feb09-2023> <17:37:05>  >>>> CLSMAT
 <Feb09-2023> <17:37:05>  >>>> ORTHON
 <Feb09-2023> <17:37:05>  >>>> GENPT
 <Feb09-2023> <17:37:05>  Block Length= 128
 <Feb09-2023> <17:37:05>  >>>> PTBAS
 <Feb09-2023> <17:37:06>  combining surface points...
 <Feb09-2023> <17:37:06>  combining surface points...
 <Feb09-2023> <17:37:06>  combining surface points...
 <Feb09-2023> <17:37:06>  >>>> CYCLE
 <Feb09-2023> <17:37:07>              |Error|         MaxErr       Wt(A-DIIS)
 <Feb09-2023> <17:37:07>      1      0.23383722      0.03424170
 <Feb09-2023> <17:37:08>      2      1.59217275      0.28387841    100.0
 <Feb09-2023> <17:37:09>      3      0.53924015      0.09225001    100.0
 <Feb09-2023> <17:37:10>      4      0.16039980      0.02001919     19.2
 <Feb09-2023> <17:37:11>      5      0.28810561      0.04273064    100.0
 <Feb09-2023> <17:37:12>      6      0.51051137      0.08448721    100.0
 <Feb09-2023> <17:37:12>      7      0.12111145      0.01857427     17.8
 <Feb09-2023> <17:37:13>      8      0.06347315      0.00987860      9.0
 <Feb09-2023> <17:37:14>      9      0.03804472      0.00803812      7.1
 <Feb09-2023> <17:37:15>     10      0.01347502      0.00201152      1.0
 <Feb09-2023> <17:37:16>     11      0.00430744      0.00074891      0.0
 <Feb09-2023> <17:37:17>     12      0.00190471      0.00042897      0.0
 <Feb09-2023> <17:37:17>     13      0.00055599      0.00012798      0.0
 <Feb09-2023> <17:37:18>     14      0.00125704      0.00018713      0.0
 <Feb09-2023> <17:37:19>     15      0.00022530      0.00003139      0.0
 <Feb09-2023> <17:37:20>     16      0.00005301      0.00000884      0.0
 <Feb09-2023> <17:37:20>     17      0.00002766      0.00000409      0.0
 <Feb09-2023> <17:37:21>     18      0.00001137      0.00000186      0.0
 <Feb09-2023> <17:37:22>     19      0.00000449      0.00000079      0.0
 <Feb09-2023> <17:37:22>  SCF converged
 <Feb09-2023> <17:37:23>     20      0.00000243      0.00000041      0.0
 <Feb09-2023> <17:37:23>  >>>> TOTEN
 <Feb09-2023> <17:37:23>  >>>> POPAN
 <Feb09-2023> <17:37:23>  >>>> DEBYE
 <Feb09-2023> <17:37:23>  >>>> ENGRAD
 <Feb09-2023> <17:37:25>  Old frequency:    -95.83056, new:    123.41375
 <Feb09-2023> <17:37:25>  Geometry symmetry displacement    7 out of    8
  Coordinates in Geometry Cycle 3
    Atom         X           Y           Z   (Angstrom)
    1.O        -2.473254   -0.649255   -1.044852
    2.O        -0.969993    1.807973   -0.274000
    3.Mo       -2.679378    1.146498   -0.472033
    4.Mo       -1.019102   -1.822047   -1.336621
    5.O         0.484216   -0.803095   -1.055627
    6.Mo        0.822723    1.053473   -0.505228
    7.O        -1.085174   -3.354081   -0.318744
    8.O         1.725006    1.903885   -1.667319
    9.O         1.734814    1.132305    0.925791
   10.O        -3.456345    2.038914   -1.666835
   11.O        -3.609142    1.307338    1.097231
   12.O        -1.032527   -2.391646   -2.922140
   13.H        -0.972787   -3.250649    0.660161
   14.H        -4.437851    1.843665    1.157774
 <Feb09-2023> <17:37:25>  >>>> CORORT
 <Feb09-2023> <17:37:25>  >>>> CLSMAT
 <Feb09-2023> <17:37:25>  >>>> ORTHON
 <Feb09-2023> <17:37:25>  >>>> GENPT
 <Feb09-2023> <17:37:25>  Block Length= 128
 <Feb09-2023> <17:37:25>  >>>> PTBAS
 <Feb09-2023> <17:37:26>  combining surface points...
 <Feb09-2023> <17:37:26>  combining surface points...
 <Feb09-2023> <17:37:26>  combining surface points...
 <Feb09-2023> <17:37:26>  >>>> CYCLE
 <Feb09-2023> <17:37:27>              |Error|         MaxErr       Wt(A-DIIS)
 <Feb09-2023> <17:37:27>      1      0.23381101      0.03424454
 <Feb09-2023> <17:37:28>      2      1.59213396      0.28371845    100.0
 <Feb09-2023> <17:37:29>      3      0.53853233      0.09209508    100.0
 <Feb09-2023> <17:37:30>      4      0.16047208      0.02012711     19.3
 <Feb09-2023> <17:37:31>      5      0.28730629      0.04251460    100.0
 <Feb09-2023> <17:37:31>      6      0.51173901      0.08479306    100.0
 <Feb09-2023> <17:37:32>      7      0.12198279      0.01867978     17.9
 <Feb09-2023> <17:37:33>      8      0.06312841      0.00985789      8.9
 <Feb09-2023> <17:37:34>      9      0.03822293      0.00792627      7.0
 <Feb09-2023> <17:37:35>     10      0.01312982      0.00200025      1.0
 <Feb09-2023> <17:37:36>     11      0.00435145      0.00076621      0.0
 <Feb09-2023> <17:37:36>     12      0.00189335      0.00042933      0.0
 <Feb09-2023> <17:37:37>     13      0.00055418      0.00012727      0.0
 <Feb09-2023> <17:37:38>     14      0.00120696      0.00017644      0.0
 <Feb09-2023> <17:37:39>     15      0.00022439      0.00003069      0.0
 <Feb09-2023> <17:37:39>     16      0.00005411      0.00000924      0.0
 <Feb09-2023> <17:37:40>     17      0.00002715      0.00000376      0.0
 <Feb09-2023> <17:37:41>     18      0.00001156      0.00000178      0.0
 <Feb09-2023> <17:37:42>     19      0.00000498      0.00000091      0.0
 <Feb09-2023> <17:37:42>  SCF converged
 <Feb09-2023> <17:37:42>     20      0.00000319      0.00000051      0.0
 <Feb09-2023> <17:37:43>  >>>> TOTEN
 <Feb09-2023> <17:37:43>  >>>> POPAN
 <Feb09-2023> <17:37:43>  >>>> DEBYE
 <Feb09-2023> <17:37:43>  >>>> ENGRAD
 <Feb09-2023> <17:37:45>  Geometry symmetry displacement    8 out of    8
  Coordinates in Geometry Cycle 3
    Atom         X           Y           Z   (Angstrom)
    1.O        -2.473465   -0.649361   -1.044686
    2.O        -0.970038    1.808425   -0.275489
    3.Mo       -2.679406    1.146571   -0.472124
    4.Mo       -1.019309   -1.821997   -1.336770
    5.O         0.484006   -0.802474   -1.057485
    6.Mo        0.822704    1.053418   -0.505194
    7.O        -1.083098   -3.353445   -0.317843
    8.O         1.726329    1.904213   -1.665953
    9.O         1.733605    1.130979    0.926667
   10.O        -3.457327    2.038679   -1.666533
   11.O        -3.608029    1.307577    1.097781
   12.O        -1.032778   -2.392796   -2.921844
   13.H        -0.974485   -3.248603    0.661353
   14.H        -4.436864    1.843649    1.158879
 <Feb09-2023> <17:37:45>  >>>> CORORT
 <Feb09-2023> <17:37:45>  >>>> CLSMAT
 <Feb09-2023> <17:37:45>  >>>> ORTHON
 <Feb09-2023> <17:37:45>  >>>> GENPT
 <Feb09-2023> <17:37:45>  Block Length= 128
 <Feb09-2023> <17:37:45>  >>>> PTBAS
 <Feb09-2023> <17:37:45>  combining surface points...
 <Feb09-2023> <17:37:45>  combining surface points...
 <Feb09-2023> <17:37:45>  combining surface points...
 <Feb09-2023> <17:37:45>  >>>> CYCLE
 <Feb09-2023> <17:37:47>              |Error|         MaxErr       Wt(A-DIIS)
 <Feb09-2023> <17:37:47>      1      0.23379736      0.03424789
 <Feb09-2023> <17:37:48>      2      1.59181322      0.28393066    100.0
 <Feb09-2023> <17:37:49>      3      0.53962055      0.09235687    100.0
 <Feb09-2023> <17:37:49>      4      0.16029977      0.01993417     19.1
 <Feb09-2023> <17:37:50>      5      0.28890061      0.04311342    100.0
 <Feb09-2023> <17:37:51>      6      0.50900966      0.08449667    100.0
 <Feb09-2023> <17:37:52>      7      0.12079650      0.01855522     17.7
 <Feb09-2023> <17:37:53>      8      0.06462245      0.01063042      9.7
 <Feb09-2023> <17:37:54>      9      0.03906334      0.00819506      7.3
 <Feb09-2023> <17:37:55>     10      0.01386968      0.00204515      1.1
 <Feb09-2023> <17:37:55>     11      0.00428591      0.00072948      0.0
 <Feb09-2023> <17:37:56>     12      0.00191575      0.00043057      0.0
 <Feb09-2023> <17:37:57>     13      0.00055901      0.00012885      0.0
 <Feb09-2023> <17:37:58>     14      0.00129933      0.00019428      0.0
 <Feb09-2023> <17:37:58>     15      0.00022664      0.00003203      0.0
 <Feb09-2023> <17:37:59>     16      0.00005190      0.00000840      0.0
 <Feb09-2023> <17:38:00>     17      0.00002810      0.00000432      0.0
 <Feb09-2023> <17:38:01>     18      0.00001118      0.00000188      0.0
 <Feb09-2023> <17:38:01>     19      0.00000414      0.00000068      0.0
 <Feb09-2023> <17:38:02>  SCF converged
 <Feb09-2023> <17:38:02>     20      0.00000175      0.00000029      0.0
 <Feb09-2023> <17:38:02>  >>>> TOTEN
 <Feb09-2023> <17:38:03>  >>>> POPAN
 <Feb09-2023> <17:38:03>  >>>> DEBYE
 <Feb09-2023> <17:38:03>  >>>> ENGRAD
 <Feb09-2023> <17:38:05>  Old frequency:    -92.32169, new:    165.60930
 <Feb09-2023> <17:38:05>  NOTE: Some frequencies have been re-calculated by numerical differentiation
 <Feb09-2023> <17:38:05>        Check the text output file for new values!
 <Feb09-2023> <17:38:05>  NORMAL TERMINATION
 <Feb09-2023> <17:38:05>  END
