
 *******************************************************************************
 *                                                                             *
 *  -------------------------------------                                      *
 *   Amsterdam Density Functional  (ADF)         2019                          *
 *  -------------------------------------                                      *
 *                                               r74351 2019-04-25             *
 *                                                                             *
 *                                                                             *
 *                            =====================                            *
 *                            |                   |                            *
 *                            |     D I R A C     |                            *
 *                            |                   |                            *
 *                            =====================                            *
 *                                                                             *
 *                                                                             *
 *   Online information and documentation:  https://www.scm.com/support/       *
 *   E-mail:  support@scm.com   info@scm.com                                   *
 *                                                                             *
 *   Scientific publications using ADF results must be properly referenced     *
 *   See the User Manuals (or the web site) for recommended citations          *
 *   The terms and conditions of the End User License Agreement apply to       *
 *   the use of ADF, https://www.scm.com/license-terms/                        *
 *                                                                             *
 **********************  x86_64_linux_intel / intelmpi  ************************
 
 DIRAC 2019  RunTime: Feb09-2023 15:27:55  Nodes: 1  Procs: 1

 Temporary files are created in /scratch/kid_0.574842359

1
 HYDROGEN ATOM RELATIVISTIC, Point Nuc, A and c from libtc   
 N J RN H ZN XION ANUC CLIGHT
 5000    1100.00000000197.36710137  1.00000000  0.00000000    1.007825  0.1370360E+03
  PH   PHI     EPS        DEL        DELRVR
  0.30  0.30     2500.00  0.00001000  0.00001000
 IDIRC  NC1  NDEBU NPRIN  IPUN IRCOR IWCOR
   1   300     0     0     0     0     0
   XALPHA      XLATTER      RNUC
  0.70000000  0.00000000  0.00000000 Point Charge
   XN   XL   XJ      XE          XZ      XDELL
  1.0  0.0  0.5      -1.000       1.000     0.00000
 ICORP=  0  NPCL=  0  DEMP=0.00  PEPS=0.000000
 R(1)=  0.1000000E-08 D=  0.1005080E+01 RNUC=  0.0000000E+00
 converged at cycle   32  DENSITY AVERAGING    0.2400
  MAXIMUM ERROR IN R.V(R) IS   0.79874357E-05
 Q,EY,EV,EZ,ESUM,ETOT,RHO  0.100000E+01 -0.266614E+00 -0.619969E+00 -0.910779E+00 -0.203940E+00 -0.415998E+00  0.337036E-17


 DIRAC CALCULATION
1                    HYDROGEN ATOM RELATIVISTIC, Point Nuc, A and c from libtc


 EXCHANGE COEFFICIENT=  0.7000000           TAIL CORRECTION=  0.           NUCLEAR RADIUS=  0.000E+00
0                       ORBITAL    N    L    J     ELECTRONS     EIGENVALUE                DELTA OF EIGENV.

                          1S1/2  1.0  0.0  0.5     1.000       -0.2039397E+00                 0.2720093E-06


                                        NUCLEAR CHARGE=    1.000000
                            INTEGRAL OF CHARGE DENSITY=    1.000000
                           SUM OF THE ORBITAL ENERGIES=     -0.2039
                                          TOTAL ENERGY=     -0.4160
                                        KINETIC ENERGY=      0.4160
                             NUCLEAR ATTRACTION ENERGY=     -0.9108
                             ELECTRON REPULSION ENERGY=      0.2787
                                       EXCHANGE ENERGY=     -0.2000

 *******************************************************************************

                             D I R A C   E X I T
 NORMAL TERMINATION



 =================
 Timing Statistics
 =================
  
 Total Used :                     CPU=        0.05      System=        0.00     Elapsed=        0.07

 Calls  Section                     ( Mean, Percentage )
 ---------------------------------------------------------------------------------------------------
     2  ><      ................      0.00    0.00             0.00    0.00             0.00    0.01
     1  EXIT PROCEDURE .........      0.05  100.00             0.00  100.00             0.07   99.99


 Currently Open Files (EXIT00)
 ====================

 Unit    Access Format  Status   Type       Ident (file)
 -------------------------------------------------------
   3      SEQ    FORM   TRANSP  NORMAL      LOGFILE
                                          ( logfile )
 
Create H   file=TZP-H
XC
  GGA PBE
End
relativistic ZORA
Corepotentials t12.rel
End

 *******************************************************************************
 *                                                                             *
 *  -------------------------------------                                      *
 *   Amsterdam Density Functional  (ADF)         2019                          *
 *  -------------------------------------                                      *
 *                                               r74351 2019-04-25             *
 *                                                                             *
 *                                                                             *
 *                              =================                              *
 *                              |               |                              *
 *                              |     A D F     |                              *
 *                              |               |                              *
 *                              =================                              *
 *                                                                             *
 *                                                                             *
 *   Online information and documentation:  https://www.scm.com/support/       *
 *   E-mail:  support@scm.com   info@scm.com                                   *
 *                                                                             *
 *   Scientific publications using ADF results must be properly referenced     *
 *   See the User Manuals (or the web site) for recommended citations          *
 *   The terms and conditions of the End User License Agreement apply to       *
 *   the use of ADF, https://www.scm.com/license-terms/                        *
 *                                                                             *
 **********************  x86_64_linux_intel / intelmpi  ************************
 
 ADF 2019  RunTime: Feb09-2023 15:27:56  Nodes: 1  Procs: 1

 Temporary files are created in /scratch/kid_0.206645924

 Hydrogen (TZP)



 ===========================
 A T T A C H E D   F I L E S
 ===========================
  
 CREATE - Data File:    TZP-H
                        Hydrogen (TZP)
 Core Potentials:
         file : t12.rel



 ===============================
 M O D E L   P A R A M E T E R S
 ===============================
  
 DENSITY FUNCTIONAL POTENTIAL (scf)
    LDA:                               PW92                                    == Not Default ==
    Gradient Corrections:              PBEc PBEx                               == Not Default ==

 SPIN  (restricted / unrestr.)
    Molecule:                          Restricted                               

 OTHER ASPECTS
    Relativistic Corrections:          scalar (ZORA,MAPA)                      == Not Default ==

    Nuclear Charge Density Model:      Point Charge Nuclei                      
    Core Treatment:                    Frozen Orbital(s)                        

    Hyperfine or Zeeman Interaction:   ---                                      



 =====================================
 S Y M M E T R Y ,   E L E C T R O N S
 =====================================
  
 Symmetry: ATOM

 Irreducible Representations, including subspecies
 -------------------------------------------------
 S
 P:x  P:y  P:z
 D:z2  D:x2-y2  D:xy  D:xz  D:yz
 F:z3  F:z  F:xyz  F:z2x  F:z2y  F:x  F:y


 Configuration of Valence Electrons
 ==================================

          Occupation Numbers
          -------------------------------------------------
 S        1
 P        0
 D        0
 F        0
          -------------------------------------------------

 Total:   1

 Net Charge: 0 (Nuclei minus Electrons)

 Preset values for MO occupations will be applied through SCF cycle no. 1000000
 Thereafter, the program will assign electrons to MOs that are spatially
 similar to the occupied MOs in a "reference" cycle ("KeepOrbitals").
 The reference cycle is always the PREVIOUS cycle: it will evolve with
 the SCF procedure.



 ================================
 (Slater-type)  F U N C T I O N S  ***  (Basis and Fit)  ***
 ================================
  

 Atom Type    1  (H)
 ==============

 Valence Basis Sets:   4
 -----------------------
   1 S    0.690000
   1 S    0.920000
   1 S    1.580000
   2 P    1.250000


 BAS: List of all Elementary Cartesian Basis Functions
 =====================================================

 The numbering in the list below (to the right of the function characteristics) is referred
 to in print-outs of MO eigenvectors and Mulliken populations in the BAS representation
 (as contrasted to the SFO representation).

 Notes:
 1. The functions are characterized by a polynomial prefactor (powers of x,y,z and r) and
    an exponential decay factor alpha.
 2. Since the basis sets are specific for an atom TYPE, the individual functions occur on
    all atoms of that type.
 3. The word 'Core' in the left margin signals that it is a Core Function (CF) : not a
    degree of freedom in the valence set, but only used to ensure orthogonalization of
    the other valence basis functions on the frozen Core Orbitals.


 (power of) X  Y  Z  R     Alpha  on Atom
            ==========     =====     ==========

 H                                    1
                                  ---------------------------------------------------------------------------
            0  0  0  0     0.690      1
            0  0  0  0     0.920      2
            0  0  0  0     1.580      3
            1  0  0  0     1.250      4
            0  1  0  0     1.250      5
            0  0  1  0     1.250      6

 Total number of charge fitting functions (nprimf)        50
 Total number of Cartesian basis functions (naos)          6
 Total number of Cartesian core functions  (ncos)          0



 BAS: List of all Elementary Cartesian Basis Functions
 =====================================================

 The numbering in the list below (to the right of the function characteristics) is referred
 to in print-outs of MO eigenvectors and Mulliken populations in the BAS representation
 (as contrasted to the SFO representation).

 Notes:
 1. The functions are characterized by a polynomial prefactor (powers of x,y,z and r) and
    an exponential decay factor alpha.
 2. Since the basis sets are specific for an atom TYPE, the individual functions occur on
    all atoms of that type.
 3. The word 'Core' in the left margin signals that it is a Core Function (CF) : not a
    degree of freedom in the valence set, but only used to ensure orthogonalization of
    the other valence basis functions on the frozen Core Orbitals.


 (power of) X  Y  Z  R     Alpha  on Atom
            ==========     =====     ==========

 H                                    1
                                  ---------------------------------------------------------------------------
            0  0  0  0     0.690      1
            0  0  0  0     0.920      2
            0  0  0  0     1.580      3
            1  0  0  0     1.250      4
            0  1  0  0     1.250      5
            0  0  1  0     1.250      6
1
 ***************************************************************************************************



                                              ***********************
                                              *  T E C H N I C A L  *
                                              ***********************
  



 =============================================================
 P A R A L L E L I Z A T I O N  and  V E C T O R I Z A T I O N
 =============================================================
  
 Nr of parallel processes:                                1
 Maximum vector length in NumInt loops:                 128



 =====================
 S C F   U P D A T E S
 =====================
  
 Max. nr. of cycles:                               300
 Convergence criterion:                              0.0000000100
   secondary criterion:                              0.0000000100

 Mix parameter (when DIIS does not apply):           0.2000000000
 Special mix parameter for the first cycle:          1.0000000000
 Mixed ADIIS+SDIIS will be used                  
    Max number of expansion vectors:                10
    Pure ADIIS when Max([F,P]) is above              0.1000000000
    Pure SDIIS when Max([F,P]) is below              0.0010000000
 Automatic ElectronSmearing (in case of problematic SCF convergence) disabled



 =================
 P R E C I S I O N  ***  (General: NumInt, NeglectFunctionTails, ...)  ***
 =================
  

 NumInt:           Target precision:                12.0000000000
 -------           Initial precision:               10.0000000000
                   Min. precision (optimization):   10.0000000000

 Neglect Functions:          Basis functions:        0.1000000000E-13
 ------------------          Fit functions:          0.1000000000E-13



 ===========================
 L I N E A R   S C A L I N G
 ===========================
  

 Cut-off radii density fit:                        0.1000000000E-97
 Overlap cut-off criterion AO matrix elements:     0.1000000000E-97
 Cut-offs for Coulomb potential and fitted density:0.1000000000E-97
 Cut-off criterion for Coulomb multipole terms:    0.1000000000E-97
 Progressive Convergence parameter:                 0.000000000    
1
 ***************************************************************************************************



                                            ***************************
                                            *  C O M P U T A T I O N  *
                                            ***************************
  

 Number of elements of the density matrix on this node (used, total):        21        21



 ===========================================
 Numerical Integration : Fuzzy Cells (Becke)
 ===========================================
  
 Becke grid quality: VERYGOOD       
  
 Lebedev angular grid order:             min:  13 max:  41
 Nr. of radial points:                   min:  64 max:  64

 Total nr. of points:         64
 Nr. of blocks:                1
 Block length:                64
 Nr. of dummy points:          0


 Test of Precision of the Numerical Integration Grid
 ===================================================

 Integral of the Total Core Density:                   0.00000000000000



 ========================
 Density Fitting (zlmFit)
 ========================
  
 ZlmFit Fit Quality: VERYGOOD       
  
 Max L-expansion:                        min:   0 max:   0
 Nr. of radial interpolation points:     min: 120 max: 120



 =====
 S C F  ***  ScaSCF  ***
 =====
  

 CYCLE    1
 SCF Error: norm([F,P])=      0.000000000000, max([F,P])=      0.000000000000
 orbitals (Q,E):
 ---------------
 S :1...3            ( 1.00    -0.5000)  ( 0.00    -0.0900)  ( 0.00     1.2936)
 P :1...1            ( 0.00     0.1562)

 CYCLE    2
 SCF Error: norm([F,P])=      0.031537872292, max([F,P])=      0.030110494752
 orbitals (Q,E):
 ---------------
 S :1...2            ( 1.00    -0.2218)  ( 0.00     0.1019)
 P :1...1            ( 0.00     0.4189)

 CYCLE    3
  SDIIS (wt  0.000):  0.1996  0.8004
 A-DIIS (wt  1.000):  0.0000  1.0000
  DIIS coefficients:  0.0000  1.0000
 SCF Error: norm([F,P])=      0.008617989401, max([F,P])=      0.008343029399
 orbitals (Q,E):
 ---------------
 S :1...2            ( 1.00    -0.2422)  ( 0.00     0.0889)
 P :1...1            ( 0.00     0.4024)

 CYCLE    4
  SDIIS (wt  0.993):  0.1666  0.8334
 A-DIIS (wt  0.007):  0.0000  1.0000
  DIIS coefficients:  0.1654  0.8346
 SCF Error: norm([F,P])=      0.001732350026, max([F,P])=      0.001718616814
 orbitals (Q,E):
 ---------------
 S :1...2            ( 1.00    -0.2385)  ( 0.00     0.0908)
 P :1...1            ( 0.00     0.4054)

 CYCLE    5
  SDIIS (wt  1.000):  0.0236  0.9764
  DIIS coefficients:  0.0236  0.9764
 SCF Error: norm([F,P])=      0.000043673449, max([F,P])=      0.000039769875
 orbitals (Q,E):
 ---------------
 S :1...2            ( 1.00    -0.2386)  ( 0.00     0.0908)
 P :1...1            ( 0.00     0.4054)

 CYCLE    6
  SDIIS (wt  1.000): -0.0577  1.0577
  DIIS coefficients: -0.0577  1.0577
 SCF Error: norm([F,P])=      0.000002383805, max([F,P])=      0.000002158128
 orbitals (Q,E):
 ---------------
 S :1...2            ( 1.00    -0.2386)  ( 0.00     0.0908)
 P :1...1            ( 0.00     0.4054)

 CYCLE    7
  SDIIS (wt  1.000): -0.0032  1.0032
  DIIS coefficients: -0.0032  1.0032
 SCF Error: norm([F,P])=      0.000000007721, max([F,P])=      0.000000007228
 orbitals (Q,E):
 ---------------
 S :1...2            ( 1.00    -0.2386)  ( 0.00     0.0908)
 P :1...1            ( 0.00     0.4054)

 SCF CONVERGED

 CYCLE    8
1
 ***************************************************************************************************



                                                *******************
                                                *  R E S U L T S  *
                                                *******************
  
 *** Using FIT density in Focky
  SDIIS (wt  1.000):  0.0192  0.9808
  DIIS coefficients:  0.0192  0.9808
 SCF Error: norm([F,P])=      0.000000000151, max([F,P])=      0.000000000141

 Scaled ZORA Orbital Energies, per Irrep and Spin:
 =================================================
                        Occup              E (au)              E (eV)       Diff (eV) with prev. cycle
                        -----      --------------------        ------       --------------------------
 S
               1        1.000     -0.23861775226993E+00        -6.493               7.43E-09
               2        0.000      0.90791701709251E-01         2.471
               3        0.000      0.15217530108908E+01        41.409
 P
               1        0.000      0.40537978060393E+00        11.031


 Partially Occupied:
               1 S                -0.23861775226993E+00
  
 LUMO :        2 S                 0.90791701709251E-01
  


 Orbital Energies, all Irreps
 ========================================

 Irrep        no.  (spin)   Occup              E (au)                E (eV)
 ---------------------------------------------------------------------------
 S             1             1.00       -0.23861775226993E+00        -6.4931
 S             2             0.00        0.90791701709251E-01         2.4706
 P             1             0.00        0.40537978060393E+00        11.0309
 S             3             0.00        0.15217530108908E+01        41.4090


 All Electron Calculation, thus no Orbital Energies of the Core Orbitals are calculated



 =======================================
 M U L L I K E N   P O P U L A T I O N S
 =======================================
  
 The survey below gives for each atom:
 a) the total charge (Z minus electrons)
 b) the net spin polarization (nr of electrons spin-A minus spin-B)
 c) for each spin the atomic electron valence density (integrated) per L-value.

 Atom              Charge    Spin density          S         P         D         F
 ----              ------    ------------       ------    ------    ------    ------
 1 H              -0.0000                       1.0000    0.0000    0.0000    0.0000

 Populations of individual BAS functions
 ----------------------------------------
 1 H            0.2104  0.6788  0.1107  0.0000  0.0000  0.0000

 Gross Charges per Atom (Z minus electrons)
 ==========================================
            -0.0000
 Net Total: -0.00000000



 =======================================================================
 Electrostatic potential at the Nuclei due to electrons and other nuclei
 =======================================================================
  
         Atom                  Potential
         ----                  ---------
     1)   H                   0.94468022
 
 
 ========================
 No memory problems found
 ========================
 
 Maximum number of active allocate calls:         306
 
 *******************************************************************************

                             A D F   E X I T
 NORMAL TERMINATION



 =================
 Timing Statistics
 =================
  
 Total Used :                     CPU=        0.32      System=        0.02     Elapsed=        0.37

 Calls  Section                     ( Mean, Percentage )
 ---------------------------------------------------------------------------------------------------
     3  ><      ................      0.00    1.27             0.00    0.00             0.00    1.17
     1  INIT    ................      0.06   20.25             0.00   16.67             0.08   20.68
     1  GEOMET  ................      0.02    6.33             0.00    0.00             0.02    6.46
     1  INPUTA  ................      0.00    0.00             0.00    0.00             0.00    0.89
     1  MAINSY  ................      0.01    2.53             0.00   16.67             0.01    3.28
     1  SYMFIT  ................      0.00    0.00             0.00    0.00             0.00    0.42
     1  CORORT  ................      0.00    0.00             0.00    0.00             0.00    0.32
     1  SYMORB  ................      0.00    0.00             0.00    0.00             0.00    0.18
     1  CLSMAT  ................      0.00    0.00             0.01   33.34             0.00    1.28
     1  ORTHON  ................      0.00    1.27             0.00    0.00             0.00    1.26
     1  GENPT   ................      0.01    3.80             0.00    0.00             0.01    3.13
     1  PTBAS   ................      0.00    1.27             0.00    0.00             0.00    1.26
     8  FOCKY   ................      0.02   48.10             0.00   33.33             0.02   44.42
     8  FOCKTR  ................      0.00    0.00             0.00    0.00             0.00    1.06
     8  SDIIS   ................      0.00    6.33             0.00    0.00             0.00    5.44
     1  COREPS  ................      0.01    3.80             0.00    0.00             0.01    3.71
     1  POPAN   ................      0.00    1.27             0.00    0.00             0.00    1.17
     1  DEBYE   ................      0.00    0.00             0.00    0.00             0.00    0.49
     1  EXIT PROCEDURE .........      0.01    3.80             0.00    0.00             0.01    3.39


 Currently Open Files (EXIT00)
 ====================

 Unit    Access Format  Status   Type       Ident (file)
 -------------------------------------------------------
   3      SEQ    FORM   TRANSP  NORMAL      LOGFILE
                                          ( logfile )

 ***************************************************************************************************
 (LOGFILE)
  Coordinates
    Atom         X           Y           Z   (Angstrom)
    1.H         0.000000    0.000000    0.000000

 *******************************************************************************
 *                                                                             *
 *  -------------------------------------                                      *
 *   Amsterdam Density Functional  (ADF)         2019                          *
 *  -------------------------------------                                      *
 *                                               r74351 2019-04-25             *
 *                                                                             *
 *                                                                             *
 *                            =====================                            *
 *                            |                   |                            *
 *                            |     D I R A C     |                            *
 *                            |                   |                            *
 *                            =====================                            *
 *                                                                             *
 *                                                                             *
 *   Online information and documentation:  https://www.scm.com/support/       *
 *   E-mail:  support@scm.com   info@scm.com                                   *
 *                                                                             *
 *   Scientific publications using ADF results must be properly referenced     *
 *   See the User Manuals (or the web site) for recommended citations          *
 *   The terms and conditions of the End User License Agreement apply to       *
 *   the use of ADF, https://www.scm.com/license-terms/                        *
 *                                                                             *
 **********************  x86_64_linux_intel / intelmpi  ************************
 
 DIRAC 2019  RunTime: Feb09-2023 15:27:56  Nodes: 1  Procs: 1

 Temporary files are created in /scratch/kid_0.580203431

1
 MOLYBDENUM ATOM 3d CORE RELATIVISTIC, Point Nuc, A and c fro
 N J RN H ZN XION ANUC CLIGHT
 5000   15100.00000000197.36710137 42.00000000  0.00000000   97.905406  0.1370360E+03
  PH   PHI     EPS        DEL        DELRVR
  0.30  0.30     2500.00  0.00001000  0.00001000
 IDIRC  NC1  NDEBU NPRIN  IPUN IRCOR IWCOR
   1   300     0     0     0     0     9
   XALPHA      XLATTER      RNUC
  0.70000000  0.00000000  0.00000000 Point Charge
   XN   XL   XJ      XE          XZ      XDELL
  1.0  0.0  0.5   -1500.000       2.000     0.00000
  2.0  0.0  0.5    -325.000       2.000     0.00000
  2.0  1.0  0.5    -325.000       2.000     0.00000
  2.0  1.0  1.5    -325.000       4.000     0.00000
  3.0  0.0  0.5     -70.000       2.000     0.00000
  3.0  1.0  0.5     -70.000       2.000     0.00000
  3.0  1.0  1.5     -70.000       4.000     0.00000
  3.0  2.0  1.5     -60.000       4.000     0.00000
  3.0  2.0  2.5     -60.000       6.000     0.00000
  4.0  0.0  0.5     -10.000       2.000     0.00000
  4.0  1.0  0.5     -10.000       2.000     0.00000
  4.0  1.0  1.5     -10.000       4.000     0.00000
  4.0  2.0  1.5      -1.000       4.000     0.00000
  4.0  2.0  2.5      -1.000       1.000     0.00000
  5.0  0.0  0.5      -0.500       1.000     0.00000
 ICORP=  0  NPCL=  0  DEMP=0.00  PEPS=0.000000
 R(1)=  0.1000000E-08 D=  0.1005080E+01 RNUC=  0.0000000E+00
 converged at cycle   41  DENSITY AVERAGING    0.2400
  MAXIMUM ERROR IN R.V(R) IS   0.93203452E-05
 Q,EY,EV,EZ,ESUM,ETOT,RHO  0.420000E+02 -0.161898E+03 -0.662509E+04 -0.978397E+04 -0.242700E+04 -0.404691E+04  0.342495E-11


 DIRAC CALCULATION
1                    MOLYBDENUM ATOM 3d CORE RELATIVISTIC, Point Nuc, A and c from libtc


 EXCHANGE COEFFICIENT=  0.7000000           TAIL CORRECTION=  0.           NUCLEAR RADIUS=  0.000E+00
0                       ORBITAL    N    L    J     ELECTRONS     EIGENVALUE                DELTA OF EIGENV.

                          1S1/2  1.0  0.0  0.5     2.000       -0.7276812E+03                 0.2822496E-04
                          2S1/2  2.0  0.0  0.5     2.000       -0.1028194E+03                 0.1725465E-04
                          2P1/2  2.0  1.0  0.5     2.000       -0.9468016E+02                 0.1864325E-04
                          2P3/2  2.0  1.0  1.5     4.000       -0.9076266E+02                 0.1832345E-04
                          3S1/2  3.0  0.0  0.5     2.000       -0.1747094E+02                 0.5979346E-05
                          3P1/2  3.0  1.0  0.5     2.000       -0.1436574E+02                 0.6275079E-05
                          3P3/2  3.0  1.0  1.5     4.000       -0.1371946E+02                 0.5984426E-05
                          3D3/2  3.0  2.0  1.5     4.000       -0.8203697E+01                 0.6709395E-05
                          3D5/2  3.0  2.0  2.5     6.000       -0.8081013E+01                 0.6610438E-05
                          4S1/2  4.0  0.0  0.5     2.000       -0.2338238E+01                 0.2446887E-06
                          4P1/2  4.0  1.0  0.5     2.000       -0.1452045E+01                 0.2971982E-06
                          4P3/2  4.0  1.0  1.5     4.000       -0.1358936E+01                 0.3186552E-06
                          4D3/2  4.0  2.0  1.5     4.000       -0.1184046E+00                 0.3378248E-06
                          4D5/2  4.0  2.0  2.5     1.000       -0.1108976E+00                 0.3342679E-06
                          5S1/2  5.0  0.0  0.5     1.000       -0.1320069E+00                 0.9757102E-07


                                        NUCLEAR CHARGE=   42.000000
                            INTEGRAL OF CHARGE DENSITY=   42.000000
                           SUM OF THE ORBITAL ENERGIES=  -2426.9970
                                          TOTAL ENERGY=  -4046.9128
                                        KINETIC ENERGY=   4198.0886
                             NUCLEAR ATTRACTION ENERGY=  -9783.9685
                             ELECTRON REPULSION ENERGY=   1660.3903
                                       EXCHANGE ENERGY=   -121.4232

 *******************************************************************************

                             D I R A C   E X I T
 NORMAL TERMINATION



 =================
 Timing Statistics
 =================
  
 Total Used :                     CPU=        0.35      System=        0.02     Elapsed=        0.38

 Calls  Section                     ( Mean, Percentage )
 ---------------------------------------------------------------------------------------------------
     2  ><      ................      0.00    0.00             0.00    0.00             0.00    0.00
     1  EXIT PROCEDURE .........      0.35  100.00             0.02  100.00             0.38  100.00


 Currently Open Files (EXIT00)
 ====================

 Unit    Access Format  Status   Type       Ident (file)
 -------------------------------------------------------
   3      SEQ    FORM   TRANSP  NORMAL      LOGFILE
                                          ( logfile )
 
Create Mo   file=TZP-Mo.3d
XC
  GGA PBE
End
relativistic ZORA
Corepotentials t12.rel
End

 *******************************************************************************
 *                                                                             *
 *  -------------------------------------                                      *
 *   Amsterdam Density Functional  (ADF)         2019                          *
 *  -------------------------------------                                      *
 *                                               r74351 2019-04-25             *
 *                                                                             *
 *                                                                             *
 *                              =================                              *
 *                              |               |                              *
 *                              |     A D F     |                              *
 *                              |               |                              *
 *                              =================                              *
 *                                                                             *
 *                                                                             *
 *   Online information and documentation:  https://www.scm.com/support/       *
 *   E-mail:  support@scm.com   info@scm.com                                   *
 *                                                                             *
 *   Scientific publications using ADF results must be properly referenced     *
 *   See the User Manuals (or the web site) for recommended citations          *
 *   The terms and conditions of the End User License Agreement apply to       *
 *   the use of ADF, https://www.scm.com/license-terms/                        *
 *                                                                             *
 **********************  x86_64_linux_intel / intelmpi  ************************
 
  
 ADF 2019  RunTime: Feb09-2023 15:27:56  Nodes: 1  Procs: 1

 Temporary files are created in /scratch/kid_0.1887540939

 Molybdenum (TZP, 3d frozen)



 ===========================
 A T T A C H E D   F I L E S
 ===========================
  
 CREATE - Data File:    TZP-Mo.3d
                        Molybdenum (TZP, 3d frozen)
 Core Potentials:
         file : t12.rel



 ===============================
 M O D E L   P A R A M E T E R S
 ===============================
  
 DENSITY FUNCTIONAL POTENTIAL (scf)
    LDA:                               PW92                                    == Not Default ==
    Gradient Corrections:              PBEc PBEx                               == Not Default ==

 SPIN  (restricted / unrestr.)
    Molecule:                          Restricted                               

 OTHER ASPECTS
    Relativistic Corrections:          scalar (ZORA,MAPA)                      == Not Default ==

    Nuclear Charge Density Model:      Point Charge Nuclei                      
    Core Treatment:                    Frozen Orbital(s)                        

    Hyperfine or Zeeman Interaction:   ---                                      



 =====================================
 S Y M M E T R Y ,   E L E C T R O N S
 =====================================
  
 Symmetry: ATOM

 Irreducible Representations, including subspecies
 -------------------------------------------------
 S
 P:x  P:y  P:z
 D:z2  D:x2-y2  D:xy  D:xz  D:yz
 F:z3  F:z  F:xyz  F:z2x  F:z2y  F:x  F:y


 Configuration of Valence Electrons
 ==================================

          Occupation Numbers
          -------------------------------------------------
 S        2 1
 P        6
 D        5
 F        0
          -------------------------------------------------

 Total:   14

 Net Charge: 0 (Nuclei minus Electrons)

 Preset values for MO occupations will be applied through SCF cycle no. 1000000
 Thereafter, the program will assign electrons to MOs that are spatially
 similar to the occupied MOs in a "reference" cycle ("KeepOrbitals").
 The reference cycle is always the PREVIOUS cycle: it will evolve with
 the SCF procedure.



 ================================
 (Slater-type)  F U N C T I O N S  ***  (Basis and Fit)  ***
 ================================
  

 Atom Type    1  (Mo)
 ==============

 Valence Basis Sets:  18
 -----------------------
   1 S   30.500000
   2 S   17.750000
   3 S    8.350000
   2 P   18.600000
   3 P    8.700000
   3 D   10.050000
   4 S    5.100000
   4 S    3.300000
   5 S    2.150000
   5 S    1.350000
   5 S    0.870000
   4 P    4.950000
   4 P    3.300000
   4 P    2.300000
   4 D    3.500000
   4 D    1.850000
   4 D    0.970000
   5 P    1.350000

 Frozen Core Shells
 ------------------
    S:  3
    P:  2
    D:  1


 BAS: List of all Elementary Cartesian Basis Functions
 =====================================================

 The numbering in the list below (to the right of the function characteristics) is referred
 to in print-outs of MO eigenvectors and Mulliken populations in the BAS representation
 (as contrasted to the SFO representation).

 Notes:
 1. The functions are characterized by a polynomial prefactor (powers of x,y,z and r) and
    an exponential decay factor alpha.
 2. Since the basis sets are specific for an atom TYPE, the individual functions occur on
    all atoms of that type.
 3. The word 'Core' in the left margin signals that it is a Core Function (CF) : not a
    degree of freedom in the valence set, but only used to ensure orthogonalization of
    the other valence basis functions on the frozen Core Orbitals.


 (power of) X  Y  Z  R     Alpha  on Atom
            ==========     =====     ==========

 Mo                                   1
                                  ---------------------------------------------------------------------------
    Core    0  0  0  0    30.500      1
    Core    0  0  0  1    17.750      2
    Core    0  0  0  2     8.350      3
    Core    1  0  0  0    18.600      4
    Core    0  1  0  0    18.600      5
    Core    0  0  1  0    18.600      6
    Core    1  0  0  1     8.700      7
    Core    0  1  0  1     8.700      8
    Core    0  0  1  1     8.700      9
    Core    2  0  0  0    10.050     10
    Core    1  1  0  0    10.050     11
    Core    1  0  1  0    10.050     12
    Core    0  2  0  0    10.050     13
    Core    0  1  1  0    10.050     14
    Core    0  0  2  0    10.050     15
            0  0  0  3     5.100     16
            0  0  0  3     3.300     17
            0  0  0  4     2.150     18
            0  0  0  4     1.350     19
            0  0  0  4     0.870     20
            1  0  0  2     4.950     21
            0  1  0  2     4.950     22
            0  0  1  2     4.950     23
            1  0  0  2     3.300     24
            0  1  0  2     3.300     25
            0  0  1  2     3.300     26
            1  0  0  2     2.300     27
            0  1  0  2     2.300     28
            0  0  1  2     2.300     29
            2  0  0  1     3.500     30
            1  1  0  1     3.500     31
            1  0  1  1     3.500     32
            0  2  0  1     3.500     33
            0  1  1  1     3.500     34
            0  0  2  1     3.500     35
            2  0  0  1     1.850     36
            1  1  0  1     1.850     37
            1  0  1  1     1.850     38
            0  2  0  1     1.850     39
            0  1  1  1     1.850     40
            0  0  2  1     1.850     41
            2  0  0  1     0.970     42
            1  1  0  1     0.970     43
            1  0  1  1     0.970     44
            0  2  0  1     0.970     45
            0  1  1  1     0.970     46
            0  0  2  1     0.970     47
            1  0  0  3     1.350     48
            0  1  0  3     1.350     49
            0  0  1  3     1.350     50

 Total number of charge fitting functions (nprimf)       230
 Total number of Cartesian basis functions (naos)         50
 Total number of Cartesian core functions  (ncos)         15



 BAS: List of all Elementary Cartesian Basis Functions
 =====================================================

 The numbering in the list below (to the right of the function characteristics) is referred
 to in print-outs of MO eigenvectors and Mulliken populations in the BAS representation
 (as contrasted to the SFO representation).

 Notes:
 1. The functions are characterized by a polynomial prefactor (powers of x,y,z and r) and
    an exponential decay factor alpha.
 2. Since the basis sets are specific for an atom TYPE, the individual functions occur on
    all atoms of that type.
 3. The word 'Core' in the left margin signals that it is a Core Function (CF) : not a
    degree of freedom in the valence set, but only used to ensure orthogonalization of
    the other valence basis functions on the frozen Core Orbitals.


 (power of) X  Y  Z  R     Alpha  on Atom
            ==========     =====     ==========

 Mo                                   1
                                  ---------------------------------------------------------------------------
    Core    0  0  0  0    30.500      1
    Core    0  0  0  1    17.750      2
    Core    0  0  0  2     8.350      3
    Core    1  0  0  0    18.600      4
    Core    0  1  0  0    18.600      5
    Core    0  0  1  0    18.600      6
    Core    1  0  0  1     8.700      7
    Core    0  1  0  1     8.700      8
    Core    0  0  1  1     8.700      9
    Core    2  0  0  0    10.050     10
    Core    1  1  0  0    10.050     11
    Core    1  0  1  0    10.050     12
    Core    0  2  0  0    10.050     13
    Core    0  1  1  0    10.050     14
    Core    0  0  2  0    10.050     15
            0  0  0  3     5.100     16
            0  0  0  3     3.300     17
            0  0  0  4     2.150     18
            0  0  0  4     1.350     19
            0  0  0  4     0.870     20
            1  0  0  2     4.950     21
            0  1  0  2     4.950     22
            0  0  1  2     4.950     23
            1  0  0  2     3.300     24
            0  1  0  2     3.300     25
            0  0  1  2     3.300     26
            1  0  0  2     2.300     27
            0  1  0  2     2.300     28
            0  0  1  2     2.300     29
            2  0  0  1     3.500     30
            1  1  0  1     3.500     31
            1  0  1  1     3.500     32
            0  2  0  1     3.500     33
            0  1  1  1     3.500     34
            0  0  2  1     3.500     35
            2  0  0  1     1.850     36
            1  1  0  1     1.850     37
            1  0  1  1     1.850     38
            0  2  0  1     1.850     39
            0  1  1  1     1.850     40
            0  0  2  1     1.850     41
            2  0  0  1     0.970     42
            1  1  0  1     0.970     43
            1  0  1  1     0.970     44
            0  2  0  1     0.970     45
            0  1  1  1     0.970     46
            0  0  2  1     0.970     47
            1  0  0  3     1.350     48
            0  1  0  3     1.350     49
            0  0  1  3     1.350     50
1
 ***************************************************************************************************



                                              ***********************
                                              *  T E C H N I C A L  *
                                              ***********************
  



 =============================================================
 P A R A L L E L I Z A T I O N  and  V E C T O R I Z A T I O N
 =============================================================
  
 Nr of parallel processes:                                1
 Maximum vector length in NumInt loops:                 128



 =====================
 S C F   U P D A T E S
 =====================
  
 Max. nr. of cycles:                               300
 Convergence criterion:                              0.0000000100
   secondary criterion:                              0.0000000100

 Mix parameter (when DIIS does not apply):           0.2000000000
 Special mix parameter for the first cycle:          1.0000000000
 Mixed ADIIS+SDIIS will be used                  
    Max number of expansion vectors:                10
    Pure ADIIS when Max([F,P]) is above              0.1000000000
    Pure SDIIS when Max([F,P]) is below              0.0010000000
 Automatic ElectronSmearing (in case of problematic SCF convergence) disabled



 =================
 P R E C I S I O N  ***  (General: NumInt, NeglectFunctionTails, ...)  ***
 =================
  

 NumInt:           Target precision:                12.0000000000
 -------           Initial precision:               10.0000000000
                   Min. precision (optimization):   10.0000000000

 Neglect Functions:          Basis functions:        0.1000000000E-13
 ------------------          Fit functions:          0.1000000000E-13



 ===========================
 L I N E A R   S C A L I N G
 ===========================
  

 Cut-off radii density fit:                        0.1000000000E-97
 Overlap cut-off criterion AO matrix elements:     0.1000000000E-97
 Cut-offs for Coulomb potential and fitted density:0.1000000000E-97
 Cut-off criterion for Coulomb multipole terms:    0.1000000000E-97
 Progressive Convergence parameter:                 0.000000000    
1
 ***************************************************************************************************



                                            ***************************
                                            *  C O M P U T A T I O N  *
                                            ***************************
  

 Number of elements of the density matrix on this node (used, total):      1275      1275



 ===========================================
 Numerical Integration : Fuzzy Cells (Becke)
 ===========================================
  
 Becke grid quality: VERYGOOD       
  
 Lebedev angular grid order:             min:  13 max:  41
 Nr. of radial points:                   min: 106 max: 106

 Total nr. of points:        106
 Nr. of blocks:                1
 Block length:               106
 Nr. of dummy points:          0


 Test of Precision of the Numerical Integration Grid
 ===================================================

 Integral of the Total Core Density:                  28.00000000969493
 Relative Error:                                       3.462E-10



 ========================
 Density Fitting (zlmFit)
 ========================
  
 ZlmFit Fit Quality: VERYGOOD       
  
 Max L-expansion:                        min:   0 max:   0
 Nr. of radial interpolation points:     min: 230 max: 230



 =====
 S C F  ***  ScaSCF  ***
 =====
  

 CYCLE    1
 SCF Error: norm([F,P])=      0.000000000000, max([F,P])=      0.000000000000
 orbitals (Q,E):
 ---------------
 S :1...5            ( 2.00   -11.6814)  ( 1.00    -6.3532)  ( 0.00    -3.9976)  ( 0.00    -2.6589)
                     ( 0.00    -1.7000)
 P :1...4            ( 6.00   -10.5018)  ( 0.00    -5.8212)  ( 0.00    -3.6400)  ( 0.00    -2.5070)
 D :1...3            ( 5.00    -8.4786)  ( 0.00    -4.5701)  ( 0.00    -2.4939)

 CYCLE    2
  SDIIS (wt  0.000):  1.0000  0.0000
 A-DIIS (wt  1.000):  0.1286  0.8714
  DIIS coefficients:  0.1286  0.8714
 SCF Error: norm([F,P])=      7.148790686087, max([F,P])=      2.364314963741
 orbitals (Q,E):
 ---------------
 S :1...3            ( 2.00    -1.8793)  ( 1.00    -0.4080)  ( 0.00    -0.1761)
 P :1...2            ( 6.00    -1.0989)  ( 0.00    -0.2723)
 D :1...2            ( 5.00    -0.2758)  ( 0.00    -0.0263)

 CYCLE    3
  SDIIS (wt  0.000):  0.3519  0.6481
 A-DIIS (wt  1.000):  0.2376  0.7624
  DIIS coefficients:  0.2376  0.7624
 SCF Error: norm([F,P])=      4.212278243430, max([F,P])=      1.568530983970
 orbitals (Q,E):
 ---------------
 S :1...3            ( 2.00    -3.0898)  ( 1.00    -0.3551)  ( 0.00    -0.0106)
 P :1...2            ( 6.00    -2.0988)  ( 0.00    -0.1560)
 D :1...2            ( 5.00    -0.6568)  ( 0.00     0.0486)

 CYCLE    4
  SDIIS (wt  0.000): -0.0802  0.2380  0.8422
 A-DIIS (wt  1.000):  0.0000  0.2131  0.7869
  DIIS coefficients:  0.0000  0.2131  0.7869
 SCF Error: norm([F,P])=      1.823310320672, max([F,P])=      0.621470068658
 orbitals (Q,E):
 ---------------
 S :1...3            ( 2.00    -2.1329)  ( 1.00    -0.1098)  ( 0.00     0.0530)
 P :1...2            ( 6.00    -1.2112)  ( 0.00     0.0122)
 D :1...2            ( 5.00    -0.0245)  ( 0.00     0.1765)

 CYCLE    5
  SDIIS (wt  0.000): -0.0246 -0.0857  0.3373  0.7730
 A-DIIS (wt  1.000):  0.0000  0.0000  0.3000  0.7000
  DIIS coefficients:  0.0000  0.0000  0.3000  0.7000
 SCF Error: norm([F,P])=      1.058828219057, max([F,P])=      0.362553371378
 orbitals (Q,E):
 ---------------
 S :1...3            ( 2.00    -2.5065)  ( 1.00    -0.1954)  ( 0.00     0.0191)
 P :1...2            ( 6.00    -1.5530)  ( 0.00    -0.0541)
 D :1...2            ( 5.00    -0.2373)  ( 0.00     0.1039)

 CYCLE    6
  SDIIS (wt  0.000):  0.0107 -0.0168 -0.1404  0.2233  0.9231
 A-DIIS (wt  1.000):  0.0000  0.0000  0.0000  0.1685  0.8315
  DIIS coefficients:  0.0000  0.0000  0.0000  0.1685  0.8315
 SCF Error: norm([F,P])=      0.386302370665, max([F,P])=      0.125926487743
 orbitals (Q,E):
 ---------------
 S :1...3            ( 2.00    -2.2911)  ( 1.00    -0.1348)  ( 0.00     0.0380)
 P :1...2            ( 6.00    -1.3509)  ( 0.00    -0.0079)
 D :1...2            ( 5.00    -0.0948)  ( 0.00     0.1449)

 CYCLE    7
  SDIIS (wt  0.044): -0.0008  0.0043  0.0172 -0.1816  0.1952  0.9657
 A-DIIS (wt  0.956):  0.0000  0.0000  0.0000  0.0000  0.3526  0.6474
  DIIS coefficients: -0.0000  0.0002  0.0008 -0.0081  0.3456  0.6615
 SCF Error: norm([F,P])=      0.284734623559, max([F,P])=      0.095612429384
 orbitals (Q,E):
 ---------------
 S :1...3            ( 2.00    -2.3844)  ( 1.00    -0.1556)  ( 0.00     0.0295)
 P :1...2            ( 6.00    -1.4366)  ( 0.00    -0.0239)
 D :1...2            ( 5.00    -0.1494)  ( 0.00     0.1281)

 CYCLE    8
  SDIIS (wt  0.772):  0.0000  0.0002 -0.0034 -0.0193  0.0076  0.2482  0.7667
 A-DIIS (wt  0.228):  0.0000  0.0000  0.0000  0.0000  0.0000  0.0289  0.9711
  DIIS coefficients:  0.0000  0.0002 -0.0026 -0.0149  0.0058  0.1982  0.8133
 SCF Error: norm([F,P])=      0.070427042512, max([F,P])=      0.023581757016
 orbitals (Q,E):
 ---------------
 S :1...3            ( 2.00    -2.3580)  ( 1.00    -0.1494)  ( 0.00     0.0311)
 P :1...2            ( 6.00    -1.4122)  ( 0.00    -0.0192)
 D :1...2            ( 5.00    -0.1332)  ( 0.00     0.1325)

 CYCLE    9
  SDIIS (wt  0.929): -0.0000 -0.0000  0.0002  0.0020 -0.0040 -0.0349  0.1906  0.8461
 A-DIIS (wt  0.071):  0.0000  0.0000  0.0000  0.0000  0.0000  0.0000  0.1077  0.8923
  DIIS coefficients: -0.0000 -0.0000  0.0002  0.0018 -0.0037 -0.0324  0.1847  0.8494
 SCF Error: norm([F,P])=      0.024021634807, max([F,P])=      0.008070140854
 orbitals (Q,E):
 ---------------
 S :1...3            ( 2.00    -2.3650)  ( 1.00    -0.1511)  ( 0.00     0.0305)
 P :1...2            ( 6.00    -1.4187)  ( 0.00    -0.0205)
 D :1...2            ( 5.00    -0.1375)  ( 0.00     0.1313)

 CYCLE   10
  SDIIS (wt  1.000):  0.0000  0.0000 -0.0000 -0.0003  0.0006  0.0038 -0.0155  1.0114
  DIIS coefficients:  0.0000  0.0000 -0.0000 -0.0003  0.0006  0.0038 -0.0155  1.0114
 SCF Error: norm([F,P])=      0.001691537232, max([F,P])=      0.000569379855
 orbitals (Q,E):
 ---------------
 S :1...3            ( 2.00    -2.3645)  ( 1.00    -0.1510)  ( 0.00     0.0305)
 P :1...2            ( 6.00    -1.4182)  ( 0.00    -0.0204)
 D :1...2            ( 5.00    -0.1372)  ( 0.00     0.1314)

 CYCLE   11
  SDIIS (wt  1.000):  0.0000 -0.0000  0.0000  0.0002 -0.0008 -0.0102 -0.0868  1.0976
  DIIS coefficients:  0.0000 -0.0000  0.0000  0.0002 -0.0008 -0.0102 -0.0868  1.0976
 SCF Error: norm([F,P])=      0.000000816018, max([F,P])=      0.000000266639
 orbitals (Q,E):
 ---------------
 S :1...3            ( 2.00    -2.3645)  ( 1.00    -0.1510)  ( 0.00     0.0305)
 P :1...2            ( 6.00    -1.4182)  ( 0.00    -0.0204)
 D :1...2            ( 5.00    -0.1372)  ( 0.00     0.1314)

 CYCLE   12
  SDIIS (wt  1.000): -0.0000  0.0000  0.0001  0.0011  0.0118  0.9869
  DIIS coefficients: -0.0000  0.0000  0.0001  0.0011  0.0118  0.9869
 SCF Error: norm([F,P])=      0.000000024268, max([F,P])=      0.000000008564
 orbitals (Q,E):
 ---------------
 S :1...3            ( 2.00    -2.3645)  ( 1.00    -0.1510)  ( 0.00     0.0305)
 P :1...2            ( 6.00    -1.4182)  ( 0.00    -0.0204)
 D :1...2            ( 5.00    -0.1372)  ( 0.00     0.1314)

 SCF CONVERGED

 CYCLE   13
1
 ***************************************************************************************************



                                                *******************
                                                *  R E S U L T S  *
                                                *******************
  
 *** Using FIT density in Focky
  SDIIS (wt  1.000):  0.0000  0.0000 -0.0009 -0.0131  1.0139
  DIIS coefficients:  0.0000  0.0000 -0.0009 -0.0131  1.0139
 SCF Error: norm([F,P])=      0.000000001716, max([F,P])=      0.000000000646

 Scaled ZORA Orbital Energies, per Irrep and Spin:
 =================================================
                        Occup              E (au)              E (eV)       Diff (eV) with prev. cycle
                        -----      --------------------        ------       --------------------------
 S
               1        2.000     -0.23645412461087E+01       -64.342               1.08E-08
               2        1.000     -0.15095063251582E+00        -4.108               1.52E-08
               3        0.000      0.30491108737404E-01         0.830
               4        0.000      0.39955981712578E+00        10.873
               5        0.000      0.28259043504195E+01        76.897
 P
               1        6.000     -0.14182481541156E+01       -38.592               1.24E-08
               2        0.000     -0.20381990593673E-01        -0.555
               3        0.000      0.61122831684606E+00        16.632
               4        0.000      0.40294008516846E+01       109.646
 D
               1        5.000     -0.13719857998971E+00        -3.733               1.57E-08
               2        0.000      0.13138303481334E+00         3.575
               3        0.000      0.10915573963069E+01        29.703


 Partially Occupied:
               2 S                -0.15095063251582E+00
               1 D                -0.13719857998971E+00
  
 HOMO :        1 P                -0.14182481541156E+01
 LUMO :        2 P                -0.20381990593673E-01
  


 Orbital Energies, all Irreps
 ========================================

 Irrep        no.  (spin)   Occup              E (au)                E (eV)
 ---------------------------------------------------------------------------
 S             1             2.00       -0.23645412461087E+01       -64.3424
 P             1             6.00       -0.14182481541156E+01       -38.5925
 S             2             1.00       -0.15095063251582E+00        -4.1076
 D             1             5.00       -0.13719857998971E+00        -3.7334
 P             2             0.00       -0.20381990593673E-01        -0.5546
 S             3             0.00        0.30491108737404E-01         0.8297
 D             2             0.00        0.13138303481334E+00         3.5751
 S             4             0.00        0.39955981712578E+00        10.8726
 P             3             0.00        0.61122831684606E+00        16.6324
 D             3             0.00        0.10915573963069E+01        29.7028
 S             5             0.00        0.28259043504195E+01        76.8968
 P             4             0.00        0.40294008516846E+01       109.6456


 Scaled ZORA Orbital Energies of the Core Orbitals:
 ==================================================

 (Note that the atoms are grouped by atomtype, see the labels, and may hence NOT be in input order)

 AtomType  Orbital  Atom                   E (au)                        E (eV)
 --------  -------  ----           --------------------        ----------------
 Mo          1S        1          -0.72810156987753E+03              -19812.652
             2S        1          -0.10281078869890E+03               -2797.624
             3S        1          -0.17490063510859E+02                -475.929
             2P        1          -0.91890973277880E+02               -2500.481
             3P        1          -0.13936907885645E+02                -379.243
             3D        1          -0.81284558211672E+01                -221.187



 =======================================
 M U L L I K E N   P O P U L A T I O N S
 =======================================
  
 The survey below gives for each atom:
 a) the total charge (Z minus electrons)
 b) the net spin polarization (nr of electrons spin-A minus spin-B)
 c) for each spin the atomic electron valence density (integrated) per L-value.

 Atom              Charge    Spin density          S         P         D         F
 ----              ------    ------------       ------    ------    ------    ------
 1 Mo              0.0000                       3.0000    6.0000    5.0000    0.0000

 Populations of individual BAS functions
 ----------------------------------------
 1 Mo          -0.0051  0.0033 -0.0315  0.0008  0.0008  0.0008  0.0345  0.0345  0.0345  0.0153
                0.0230  0.0230  0.0153  0.0230  0.0153  1.3114  0.7310  0.3903  0.5032  0.0973
                0.7293  0.7293  0.7293  1.1024  1.1024  1.1024  0.1310  0.1310  0.1310  0.2744
                0.4116  0.4116  0.2744  0.4116  0.2744  0.3155  0.4732  0.4732  0.3155  0.4732
                0.3155  0.0615  0.0922  0.0922  0.0615  0.0922  0.0615  0.0019  0.0019  0.0019

 Gross Charges per Atom (Z minus electrons)
 ==========================================
             0.0000
 Net Total:  0.00000000



 =======================================================================
 Electrostatic potential at the Nuclei due to electrons and other nuclei
 =======================================================================
  
         Atom                  Potential
         ----                  ---------
     1)   Mo                232.78835403
 
 
 ========================
 No memory problems found
 ========================
 
 Maximum number of active allocate calls:         389
 
 *******************************************************************************

                             A D F   E X I T
 NORMAL TERMINATION



 =================
 Timing Statistics
 =================
  
 Total Used :                     CPU=        0.68      System=        0.02     Elapsed=        0.74

 Calls  Section                     ( Mean, Percentage )
 ---------------------------------------------------------------------------------------------------
     3  ><      ................      0.00    0.58             0.00    0.00             0.00    0.60
     1  INIT    ................      0.07   10.53             0.00    0.00             0.08   10.34
     1  GEOMET  ................      0.02    2.34             0.00    0.00             0.02    3.34
     1  INPUTA  ................      0.00    0.58             0.00    0.00             0.00    0.47
     1  MAINSY  ................      0.01    1.17             0.00   25.00             0.02    2.41
     1  SYMFIT  ................      0.00    0.00             0.00    0.00             0.00    0.22
     1  CORORT  ................      0.00    0.58             0.00    0.00             0.00    0.23
     1  SYMORB  ................      0.00    0.00             0.00    0.00             0.00    0.13
     1  CLSMAT  ................      0.00    0.58             0.00    0.00             0.01    0.73
     1  ORTHON  ................      0.00    0.58             0.00    0.00             0.01    0.73
     1  GENPT   ................      0.02    2.92             0.00    0.00             0.02    2.82
     1  PTBAS   ................      0.01    1.17             0.00    0.00             0.01    0.76
    13  FOCKY   ................      0.04   66.67             0.00   25.00             0.04   63.76
    13  FOCKTR  ................      0.00    0.58             0.00    0.00             0.00    1.07
    13  SDIIS   ................      0.00    4.68             0.00   25.00             0.00    4.83
     1  COREPS  ................      0.03    4.09             0.00   25.00             0.03    4.53
     1  POPAN   ................      0.00    0.58             0.00    0.00             0.01    0.68
     1  DEBYE   ................      0.00    0.00             0.00    0.00             0.00    0.27
     1  EXIT PROCEDURE .........      0.02    2.34             0.00    0.00             0.02    2.07


 Currently Open Files (EXIT00)
 ====================

 Unit    Access Format  Status   Type       Ident (file)
 -------------------------------------------------------
   3      SEQ    FORM   TRANSP  NORMAL      LOGFILE
                                          ( logfile )

 ***************************************************************************************************
 (LOGFILE)
  Coordinates
    Atom         X           Y           Z   (Angstrom)
    1.H         0.000000    0.000000    0.000000
  Coordinates
    Atom         X           Y           Z   (Angstrom)
    1.Mo        0.000000    0.000000    0.000000

 *******************************************************************************
 *                                                                             *
 *  -------------------------------------                                      *
 *   Amsterdam Density Functional  (ADF)         2019                          *
 *  -------------------------------------                                      *
 *                                               r74351 2019-04-25             *
 *                                                                             *
 *                                                                             *
 *                            =====================                            *
 *                            |                   |                            *
 *                            |     D I R A C     |                            *
 *                            |                   |                            *
 *                            =====================                            *
 *                                                                             *
 *                                                                             *
 *   Online information and documentation:  https://www.scm.com/support/       *
 *   E-mail:  support@scm.com   info@scm.com                                   *
 *                                                                             *
 *   Scientific publications using ADF results must be properly referenced     *
 *   See the User Manuals (or the web site) for recommended citations          *
 *   The terms and conditions of the End User License Agreement apply to       *
 *   the use of ADF, https://www.scm.com/license-terms/                        *
 *                                                                             *
 **********************  x86_64_linux_intel / intelmpi  ************************
 
  
 DIRAC 2019  RunTime: Feb09-2023 15:27:57  Nodes: 1  Procs: 1

 Temporary files are created in /scratch/kid_0.702726696

1
 OXYGEN ATOM 1s CORE RELATIVISTIC, Point Nuc, A and c from li
 N J RN H ZN XION ANUC CLIGHT
 5000    4100.00000000197.36710137  8.00000000  0.00000000   15.994914  0.1370360E+03
  PH   PHI     EPS        DEL        DELRVR
  0.30  0.30     2500.00  0.00001000  0.00001000
 IDIRC  NC1  NDEBU NPRIN  IPUN IRCOR IWCOR
   1   300     0     0     0     0     1
   XALPHA      XLATTER      RNUC
  0.70000000  0.00000000  0.00000000 Point Charge
   XN   XL   XJ      XE          XZ      XDELL
  1.0  0.0  0.5      -5.000       2.000     0.00000
  2.0  0.0  0.5      -1.000       2.000     0.00000
  2.0  1.0  0.5      -1.000       2.000     0.00000
  2.0  1.0  1.5      -1.000       2.000     0.00000
 ICORP=  0  NPCL=  0  DEMP=0.00  PEPS=0.000000
 R(1)=  0.1000000E-08 D=  0.1005080E+01 RNUC=  0.0000000E+00
 converged at cycle   28  DENSITY AVERAGING    0.2400
  MAXIMUM ERROR IN R.V(R) IS   0.81125670E-05
 Q,EY,EV,EZ,ESUM,ETOT,RHO  0.800000E+01 -0.101247E+02 -0.114961E+03 -0.177573E+03 -0.405053E+02 -0.743427E+02  0.414766E-14


 DIRAC CALCULATION
1                    OXYGEN ATOM 1s CORE RELATIVISTIC, Point Nuc, A and c from libtc


 EXCHANGE COEFFICIENT=  0.7000000           TAIL CORRECTION=  0.           NUCLEAR RADIUS=  0.000E+00
0                       ORBITAL    N    L    J     ELECTRONS     EIGENVALUE                DELTA OF EIGENV.

                          1S1/2  1.0  0.0  0.5     2.000       -0.1880014E+02                 0.7264358E-06
                          2S1/2  2.0  0.0  0.5     2.000       -0.8412236E+00                 0.5932752E-05
                          2P1/2  2.0  1.0  0.5     2.000       -0.3063203E+00                 0.5998471E-05
                          2P3/2  2.0  1.0  1.5     2.000       -0.3049609E+00                 0.5986971E-05


                                        NUCLEAR CHARGE=    8.000000
                            INTEGRAL OF CHARGE DENSITY=    8.000000
                           SUM OF THE ORBITAL ENERGIES=    -40.5053
                                          TOTAL ENERGY=    -74.3427
                                        KINETIC ENERGY=     74.4552
                             NUCLEAR ATTRACTION ENERGY=   -177.5730
                             ELECTRON REPULSION ENERGY=     36.3686
                                       EXCHANGE ENERGY=     -7.5935

 *******************************************************************************

                             D I R A C   E X I T
 NORMAL TERMINATION



 =================
 Timing Statistics
 =================
  
 Total Used :                     CPU=        0.10      System=        0.00     Elapsed=        0.11

 Calls  Section                     ( Mean, Percentage )
 ---------------------------------------------------------------------------------------------------
     2  ><      ................      0.00    0.00             0.00    0.00             0.00    0.01
     1  EXIT PROCEDURE .........      0.10  100.00             0.00  100.00             0.11   99.99


 Currently Open Files (EXIT00)
 ====================

 Unit    Access Format  Status   Type       Ident (file)
 -------------------------------------------------------
   3      SEQ    FORM   TRANSP  NORMAL      LOGFILE
                                          ( logfile )
 
Create O   file=TZP-O.1s
XC
  GGA PBE
End
relativistic ZORA
Corepotentials t12.rel
End

 *******************************************************************************
 *                                                                             *
 *  -------------------------------------                                      *
 *   Amsterdam Density Functional  (ADF)         2019                          *
 *  -------------------------------------                                      *
 *                                               r74351 2019-04-25             *
 *                                                                             *
 *                                                                             *
 *                              =================                              *
 *                              |               |                              *
 *                              |     A D F     |                              *
 *                              |               |                              *
 *                              =================                              *
 *                                                                             *
 *                                                                             *
 *   Online information and documentation:  https://www.scm.com/support/       *
 *   E-mail:  support@scm.com   info@scm.com                                   *
 *                                                                             *
 *   Scientific publications using ADF results must be properly referenced     *
 *   See the User Manuals (or the web site) for recommended citations          *
 *   The terms and conditions of the End User License Agreement apply to       *
 *   the use of ADF, https://www.scm.com/license-terms/                        *
 *                                                                             *
 **********************  x86_64_linux_intel / intelmpi  ************************
 
  
 ADF 2019  RunTime: Feb09-2023 15:27:57  Nodes: 1  Procs: 1

 Temporary files are created in /scratch/kid_0.1451031853

 Oxygen (TZP, 1s frozen)



 ===========================
 A T T A C H E D   F I L E S
 ===========================
  
 CREATE - Data File:    TZP-O.1s
                        Oxygen (TZP, 1s frozen)
 Core Potentials:
         file : t12.rel



 ===============================
 M O D E L   P A R A M E T E R S
 ===============================
  
 DENSITY FUNCTIONAL POTENTIAL (scf)
    LDA:                               PW92                                    == Not Default ==
    Gradient Corrections:              PBEc PBEx                               == Not Default ==

 SPIN  (restricted / unrestr.)
    Molecule:                          Restricted                               

 OTHER ASPECTS
    Relativistic Corrections:          scalar (ZORA,MAPA)                      == Not Default ==

    Nuclear Charge Density Model:      Point Charge Nuclei                      
    Core Treatment:                    Frozen Orbital(s)                        

    Hyperfine or Zeeman Interaction:   ---                                      



 =====================================
 S Y M M E T R Y ,   E L E C T R O N S
 =====================================
  
 Symmetry: ATOM

 Irreducible Representations, including subspecies
 -------------------------------------------------
 S
 P:x  P:y  P:z
 D:z2  D:x2-y2  D:xy  D:xz  D:yz
 F:z3  F:z  F:xyz  F:z2x  F:z2y  F:x  F:y


 Configuration of Valence Electrons
 ==================================

          Occupation Numbers
          -------------------------------------------------
 S        2
 P        4
 D        0
 F        0
          -------------------------------------------------

 Total:   6

 Net Charge: 0 (Nuclei minus Electrons)

 Preset values for MO occupations will be applied through SCF cycle no. 1000000
 Thereafter, the program will assign electrons to MOs that are spatially
 similar to the occupied MOs in a "reference" cycle ("KeepOrbitals").
 The reference cycle is always the PREVIOUS cycle: it will evolve with
 the SCF procedure.



 ================================
 (Slater-type)  F U N C T I O N S  ***  (Basis and Fit)  ***
 ================================
  

 Atom Type    1  (O)
 ==============

 Valence Basis Sets:   8
 -----------------------
   1 S    7.360000
   2 S    1.720000
   2 S    2.880000
   2 S    7.580000
   2 P    1.120000
   2 P    2.080000
   2 P    4.080000
   3 D    2.000000

 Frozen Core Shells
 ------------------
    S:  1


 BAS: List of all Elementary Cartesian Basis Functions
 =====================================================

 The numbering in the list below (to the right of the function characteristics) is referred
 to in print-outs of MO eigenvectors and Mulliken populations in the BAS representation
 (as contrasted to the SFO representation).

 Notes:
 1. The functions are characterized by a polynomial prefactor (powers of x,y,z and r) and
    an exponential decay factor alpha.
 2. Since the basis sets are specific for an atom TYPE, the individual functions occur on
    all atoms of that type.
 3. The word 'Core' in the left margin signals that it is a Core Function (CF) : not a
    degree of freedom in the valence set, but only used to ensure orthogonalization of
    the other valence basis functions on the frozen Core Orbitals.


 (power of) X  Y  Z  R     Alpha  on Atom
            ==========     =====     ==========

 O                                    1
                                  ---------------------------------------------------------------------------
    Core    0  0  0  0     7.360      1
            0  0  0  1     1.720      2
            0  0  0  1     2.880      3
            0  0  0  1     7.580      4
            1  0  0  0     1.120      5
            0  1  0  0     1.120      6
            0  0  1  0     1.120      7
            1  0  0  0     2.080      8
            0  1  0  0     2.080      9
            0  0  1  0     2.080     10
            1  0  0  0     4.080     11
            0  1  0  0     4.080     12
            0  0  1  0     4.080     13
            2  0  0  0     2.000     14
            1  1  0  0     2.000     15
            1  0  1  0     2.000     16
            0  2  0  0     2.000     17
            0  1  1  0     2.000     18
            0  0  2  0     2.000     19

 Total number of charge fitting functions (nprimf)        82
 Total number of Cartesian basis functions (naos)         19
 Total number of Cartesian core functions  (ncos)          1



 BAS: List of all Elementary Cartesian Basis Functions
 =====================================================

 The numbering in the list below (to the right of the function characteristics) is referred
 to in print-outs of MO eigenvectors and Mulliken populations in the BAS representation
 (as contrasted to the SFO representation).

 Notes:
 1. The functions are characterized by a polynomial prefactor (powers of x,y,z and r) and
    an exponential decay factor alpha.
 2. Since the basis sets are specific for an atom TYPE, the individual functions occur on
    all atoms of that type.
 3. The word 'Core' in the left margin signals that it is a Core Function (CF) : not a
    degree of freedom in the valence set, but only used to ensure orthogonalization of
    the other valence basis functions on the frozen Core Orbitals.


 (power of) X  Y  Z  R     Alpha  on Atom
            ==========     =====     ==========

 O                                    1
                                  ---------------------------------------------------------------------------
    Core    0  0  0  0     7.360      1
            0  0  0  1     1.720      2
            0  0  0  1     2.880      3
            0  0  0  1     7.580      4
            1  0  0  0     1.120      5
            0  1  0  0     1.120      6
            0  0  1  0     1.120      7
            1  0  0  0     2.080      8
            0  1  0  0     2.080      9
            0  0  1  0     2.080     10
            1  0  0  0     4.080     11
            0  1  0  0     4.080     12
            0  0  1  0     4.080     13
            2  0  0  0     2.000     14
            1  1  0  0     2.000     15
            1  0  1  0     2.000     16
            0  2  0  0     2.000     17
            0  1  1  0     2.000     18
            0  0  2  0     2.000     19
1
 ***************************************************************************************************



                                              ***********************
                                              *  T E C H N I C A L  *
                                              ***********************
  



 =============================================================
 P A R A L L E L I Z A T I O N  and  V E C T O R I Z A T I O N
 =============================================================
  
 Nr of parallel processes:                                1
 Maximum vector length in NumInt loops:                 128



 =====================
 S C F   U P D A T E S
 =====================
  
 Max. nr. of cycles:                               300
 Convergence criterion:                              0.0000000100
   secondary criterion:                              0.0000000100

 Mix parameter (when DIIS does not apply):           0.2000000000
 Special mix parameter for the first cycle:          1.0000000000
 Mixed ADIIS+SDIIS will be used                  
    Max number of expansion vectors:                10
    Pure ADIIS when Max([F,P]) is above              0.1000000000
    Pure SDIIS when Max([F,P]) is below              0.0010000000
 Automatic ElectronSmearing (in case of problematic SCF convergence) disabled



 =================
 P R E C I S I O N  ***  (General: NumInt, NeglectFunctionTails, ...)  ***
 =================
  

 NumInt:           Target precision:                12.0000000000
 -------           Initial precision:               10.0000000000
                   Min. precision (optimization):   10.0000000000

 Neglect Functions:          Basis functions:        0.1000000000E-13
 ------------------          Fit functions:          0.1000000000E-13



 ===========================
 L I N E A R   S C A L I N G
 ===========================
  

 Cut-off radii density fit:                        0.1000000000E-97
 Overlap cut-off criterion AO matrix elements:     0.1000000000E-97
 Cut-offs for Coulomb potential and fitted density:0.1000000000E-97
 Cut-off criterion for Coulomb multipole terms:    0.1000000000E-97
 Progressive Convergence parameter:                 0.000000000    
1
 ***************************************************************************************************



                                            ***************************
                                            *  C O M P U T A T I O N  *
                                            ***************************
  

 Number of elements of the density matrix on this node (used, total):       190       190



 ===========================================
 Numerical Integration : Fuzzy Cells (Becke)
 ===========================================
  
 Becke grid quality: VERYGOOD       
  
 Lebedev angular grid order:             min:  13 max:  41
 Nr. of radial points:                   min:  68 max:  68

 Total nr. of points:         68
 Nr. of blocks:                1
 Block length:                68
 Nr. of dummy points:          0


 Test of Precision of the Numerical Integration Grid
 ===================================================

 Integral of the Total Core Density:                   1.99999999865610
 Relative Error:                                      -6.720E-10



 ========================
 Density Fitting (zlmFit)
 ========================
  
 ZlmFit Fit Quality: VERYGOOD       
  
 Max L-expansion:                        min:   0 max:   0
 Nr. of radial interpolation points:     min: 140 max: 140



 =====
 S C F  ***  ScaSCF  ***
 =====
  

 CYCLE    1
 SCF Error: norm([F,P])=      0.000000000000, max([F,P])=      0.000000000000
 orbitals (Q,E):
 ---------------
 S :1...3            ( 2.00    -5.3654)  ( 0.00    -2.2073)  ( 0.00    23.6692)
 P :1...3            ( 4.00    -5.0045)  ( 0.00    -2.0150)  ( 0.00    -0.3846)
 D :1...1            ( 0.00    -2.0410)

 CYCLE    2
 SCF Error: norm([F,P])=      4.562993374873, max([F,P])=      2.528971113813
 orbitals (Q,E):
 ---------------
 S :1...2            ( 2.00    -0.1548)  ( 0.00     1.6948)
 P :1...2            ( 4.00     0.1773)  ( 0.00     0.9552)
 D :1...1            ( 0.00     1.4649)

 CYCLE    3
  SDIIS (wt  0.000):  0.3378  0.6622
 A-DIIS (wt  1.000):  0.4814  0.5186
  DIIS coefficients:  0.4814  0.5186
 SCF Error: norm([F,P])=      2.723155250500, max([F,P])=      1.798667049295
 orbitals (Q,E):
 ---------------
 S :1...2            ( 2.00    -1.1093)  ( 0.00     0.7549)
 P :1...2            ( 4.00    -0.5518)  ( 0.00     0.2590)
 D :1...1            ( 0.00     0.8910)

 CYCLE    4
  SDIIS (wt  0.000):  0.0919  0.9081
 A-DIIS (wt  1.000):  0.0000  1.0000
  DIIS coefficients:  0.0000  1.0000
 SCF Error: norm([F,P])=      0.289027138405, max([F,P])=      0.130648623511
 orbitals (Q,E):
 ---------------
 S :1...2            ( 2.00    -0.7707)  ( 0.00     0.9912)
 P :1...2            ( 4.00    -0.2284)  ( 0.00     0.4046)
 D :1...1            ( 0.00     1.1288)

 CYCLE    5
  SDIIS (wt  0.000):  0.0260  0.6740  0.3001
 A-DIIS (wt  1.000):  0.0000  0.5764  0.4236
  DIIS coefficients:  0.0000  0.5764  0.4236
 SCF Error: norm([F,P])=      0.416615089426, max([F,P])=      0.232643669786
 orbitals (Q,E):
 ---------------
 S :1...2            ( 2.00    -0.8764)  ( 0.00     0.9107)
 P :1...2            ( 4.00    -0.3280)  ( 0.00     0.3557)
 D :1...1            ( 0.00     1.0703)

 CYCLE    6
  SDIIS (wt  0.942):  0.0005  0.0237 -0.0203  0.9960
 A-DIIS (wt  0.058):  0.0000  0.0000  0.0000  1.0000
[...]
        ----------  ----------  ----------  ----------  ----------  ----------  ----------  ----------
   1   -0.02615417  0.18543597  0.42162149 -0.37180792 -0.34499112  0.13424452 -0.33165321  0.06507134
   2   -0.00318503 -0.43460581 -0.01126824 -0.33907376 -0.01325936 -0.41382690 -0.37289913  0.11879730
   3   -0.02411229 -0.23348591  0.34714515  0.44505174 -0.29692006 -0.14809264  0.39304413 -0.07821967
   4    0.04977409  0.47504520  0.18035171  0.00601160  0.58632694  0.07358437 -0.16781508  0.18349886
   5    0.02701149  0.30091894  0.04604284  0.48989133  0.13718546 -0.57578092 -0.19115492 -0.04623419
   6    0.03043296 -0.50838042  0.16165931 -0.11205792  0.65093824  0.04837876  0.18938197 -0.15252734
   7   -0.09141127 -0.08644799  0.02486523  0.35522405  0.01039444  0.65703924 -0.13874668  0.10390885
   8    0.00832290 -0.18522892 -0.64702244  0.25239932 -0.03168023  0.07124219 -0.40909711 -0.01938519
   9    0.87114485  0.04774151  0.00938310 -0.02594277 -0.05917557  0.09524386 -0.06632425 -0.45026287
  10    0.09792950 -0.31238799  0.46210772  0.32404829  0.01623030  0.04506742 -0.50399533  0.12474324
  11   -0.46656439  0.07678307  0.08905204 -0.02366667  0.03804223  0.04045919 -0.22552867 -0.82869108
  12   -0.00009863  0.00081707  0.00006623 -0.00044694  0.00004299  0.00012990 -0.00407473 -0.01616528

             9          10          11          12

          846.1331    853.1183    895.1218   3652.6037
        ----------  ----------  ----------  ----------
   1   -0.52632205  0.28144931  0.20353228  0.00102796
   2   -0.02689403 -0.58993121  0.15057272 -0.00056865
   3   -0.46415321 -0.28480549 -0.24305084 -0.00103947
   4   -0.26339589 -0.35894086 -0.36062133 -0.00060904
   5   -0.05671448  0.13949875  0.50488235  0.00088229
   6   -0.27812196  0.30450567  0.21602214  0.00040920
   7    0.00921639 -0.36219420  0.51404085  0.00210845
   8   -0.47143111  0.16876759 -0.24233895 -0.00206095
   9   -0.00354463 -0.12831070  0.04267675 -0.00775433
  10    0.36130958  0.24428945 -0.33493888 -0.00022502
  11    0.06315416 -0.12171135 -0.09068104 -0.01517417
  12    0.00006781 -0.00306296 -0.00383403  0.99984854


 Intensities
 ===========

               Frequency       Dipole Strength        Absorption Intensity (degeneracy not counted)
                 cm-1           1e-40 esu2 cm2          km/mole
              ----------          ----------          ----------
               94.108392         9047.144321          213.411560
              212.952385          128.445358            6.856129
              215.375967          359.499615           19.407685
              274.078151          600.254482           41.237079
              303.291803            1.695983            0.128932
              305.649809           72.447126            5.550388
              602.603742         2151.242520          324.937076
              729.327081          441.725444           80.751914
              846.133147         2554.262453          541.729266
              853.118304         2695.586972          576.422174
              895.121762          318.106476           71.372794
             3652.603716          211.134330          193.303395



 Zero-Point Energy :      0.020468 a.u.
 ===================      0.556960 eV
                                                   hartree              eV         kcal/mol           kJ/mol
                                      --------------------     -----------       ----------      -----------
              Bond Energy:              -1.750556170211716        -47.6351         -1098.49         -4596.08
              Zero-Point Energy:         0.020467888370448          0.5570            12.84            53.74
              Enthalpy (T=0K):          -1.730088281841268        -47.0781         -1085.65         -4542.35



 ===========================
 Vibrations and Normal Modes  ***  (cartesian coordinates, NOT mass-weighted)  ***
 ===========================
  
 The headers on the normal mode eigenvectors below give the Frequency in cm-1
 (a negative value means an imaginary frequency, no output for (almost-)zero frequencies)


                        94.108                       212.952                       215.376
              ------------------------      ------------------------      ------------------------
    1.Mo         0.002   0.000   0.002         0.034  -0.080  -0.043        -0.109   0.003  -0.090
    2.O         -0.012  -0.003  -0.006         0.193   0.230  -0.231         0.039  -0.011   0.055
    3.O          0.017  -0.002  -0.029        -0.097  -0.068   0.132         0.267   0.283  -0.255
    4.O         -0.028   0.007   0.019        -0.132  -0.081   0.139        -0.185  -0.279   0.297
    5.O         -0.034  -0.006  -0.036        -0.172   0.361   0.217         0.534  -0.006   0.442
    6.H          0.732   0.045   0.676        -0.007   0.747   0.084         0.204  -0.079   0.175


                       274.078                       303.292                       305.650
              ------------------------      ------------------------      ------------------------
    1.Mo         0.097   0.088  -0.116        -0.080  -0.003  -0.069         0.035  -0.109  -0.039
    2.O         -0.149  -0.482   0.191         0.499   0.014   0.426         0.005  -0.257  -0.001
    3.O         -0.419  -0.110   0.242        -0.211   0.224   0.250         0.234   0.488   0.406
    4.O         -0.171  -0.106   0.450         0.218  -0.220  -0.243        -0.451   0.469  -0.179
    5.O          0.137   0.142  -0.160        -0.038  -0.001  -0.031        -0.002  -0.033   0.016
    6.H          0.155   0.236  -0.211         0.360   0.031   0.334        -0.036   0.025  -0.060


                       602.604                       729.327                       846.133
              ------------------------      ------------------------      ------------------------
    1.Mo         0.085   0.095  -0.101         0.004   0.008  -0.005         0.145   0.008   0.128
    2.O         -0.009  -0.033   0.012         0.028  -0.028  -0.031        -0.023  -0.010  -0.037
    3.O         -0.043   0.002   0.004         0.001  -0.011   0.012        -0.418   0.368  -0.377
    4.O          0.001   0.001   0.045        -0.010  -0.010   0.001        -0.438  -0.404  -0.360
    5.O         -0.456  -0.571   0.543        -0.026   0.053   0.024        -0.003   0.001  -0.004
    6.H         -0.182   0.261   0.196        -0.317  -0.851   0.409        -0.113  -0.013  -0.101


                       853.118                       895.122                      3652.604
              ------------------------      ------------------------      ------------------------
    1.Mo         0.064  -0.134  -0.065         0.052   0.039  -0.062        -0.000   0.000   0.000
    2.O         -0.316   0.350   0.357        -0.333   0.355   0.378         0.000  -0.000  -0.000
    3.O         -0.232   0.231  -0.179         0.325  -0.308   0.299        -0.000   0.000  -0.000
    4.O          0.188   0.227   0.183        -0.334  -0.323  -0.268         0.000   0.000   0.000
    5.O         -0.020   0.045   0.020         0.025   0.049  -0.030        -0.039   0.029   0.040
    6.H         -0.205  -0.507   0.247        -0.035  -0.165   0.051         0.617  -0.467  -0.631




 List of All Frequencies:


 Intensities
 ===========

               Frequency       Dipole Strength        Absorption Intensity (degeneracy not counted)
                 cm-1           1e-40 esu2 cm2          km/mole
              ----------          ----------          ----------
               94.108392         9047.144321          213.411560
              212.952385          128.445358            6.856129
              215.375967          359.499615           19.407685
              274.078151          600.254482           41.237079
              303.291803            1.695983            0.128932
              305.649809           72.447126            5.550388
              602.603742         2151.242520          324.937076
              729.327081          441.725444           80.751914
              846.133147         2554.262453          541.729266
              853.118304         2695.586972          576.422174
              895.121762          318.106476           71.372794
             3652.603716          211.134330          193.303395



 ============================
 Statistical Thermal Analysis  ***  ideal gas assumed  ***
 ============================
  
 Pressure:                  1.000000 atm.
 Temperature:             298.150000 K



 Moments of Inertia [amu*bohr^2] and principal axis
 ==================================================

         476.9033        532.3954        539.1873
 ------------------------------------------------
          -0.5120          0.4424          0.7363
          -0.6386         -0.7693          0.0181
           0.5745         -0.4609          0.6764


 The rotational contribution to the molecular entropy includes
 a term, dependent on the symmetry number sigma. The results 
 reported below were computed using sigma = 1, determined from
 the point group symmetry of the input geometry (NOSYM). 
 If this is not the correct symmetry, try symmetrizing the molecule before
 running the calculation (note: linear molecules should be aligned along one
 of the Cartesian axes).
 Contributions from frequencies below 20 1/cm are not included in
 the vibrational sums. Their contributions, if any, are reported separately.


     Temp                                                       Transl     Rotat    Vibrat     Total
     ----                                                       ------     -----    ------     -----

     298.15   Entropy (cal/mole-K):                             41.172    26.418    13.145    80.736
              Internal Energy (Kcal/mole):                       0.889     0.889    15.073    16.850
              Constant Volume Heat Capacity (cal/mole-K):        2.981     2.981    14.096    20.057

              Summary of energy terms
                                                   hartree              eV         kcal/mol           kJ/mol
                                      --------------------     -----------       ----------      -----------
              Bond Energy:              -1.750556170211716        -47.6351         -1098.49         -4596.08
              Internal Energy:           0.026852337011002          0.7307            16.85            70.50
              pV/n = RT:                 0.000944186013486          0.0257             0.59             2.48
              Enthalpy H:               -1.722759647187229        -46.8787         -1081.05         -4523.10
              -T*S:                     -0.038360080017384         -1.0438           -24.07          -100.71
              Gibbs free energy:        -1.761119727204613        -47.9225         -1105.12         -4623.82
 

 ***************************************************************************************************
 


====================================================================
*** DONE CALCULATING ANALYTICAL SECOND DERIVATIVES OF THE ENERGY ***
====================================================================




 ===========================================================
 SCAN POTENTIAL ENERGY SURFACE ALONG A RANGE OF NORMAL MODES  ***  with IR intensities  ***
 ===========================================================
  

 Symmetry has been reset to default with TOL= 0.000001000000

 RANGE OF FREQUENCIES: from  -1000.000 to      0.000



 ===================
 Vibration symmetry:  ***  A  ***
 ===================
  
 Total number of frequencies of this symmetry:    12
 Frequencies, cm^(-1):
      94.108     212.952     215.376     274.078     303.292     305.650     602.604     729.327
     846.133     853.118     895.122    3652.604
 Number of frequencies in the requested range:     0
 ===================================================================================================
 Summary of a frequency scan in the requested range: 
 (One component per degenerate irreducible representations, degeneracy is not counted in the intens.)
 ---------------------------------------------------------------------------------------------------
 Frequency, cm**(-1)      Dipol moment derivatives (a.u.)      IR Intensity   Force const   Red.mass
    Old      New                X         Y         Z            km/mole          a.u.        a.u.
 ---------------------------------------------------------------------------------------------------
 Vibration symmetry: A
    94.108      not re-calculated (not in the required range)
   212.952      not re-calculated (not in the required range)
   215.376      not re-calculated (not in the required range)
   274.078      not re-calculated (not in the required range)
   303.292      not re-calculated (not in the required range)
   305.650      not re-calculated (not in the required range)
   602.604      not re-calculated (not in the required range)
   729.327      not re-calculated (not in the required range)
   846.133      not re-calculated (not in the required range)
   853.118      not re-calculated (not in the required range)
   895.122      not re-calculated (not in the required range)
  3652.604      not re-calculated (not in the required range)
 ===================================================================================================



 ============================
 Statistical Thermal Analysis  ***  ideal gas assumed  ***
 ============================
  
 Pressure:                  1.000000 atm.
 Temperature:             298.150000 K



 Moments of Inertia [amu*bohr^2] and principal axis
 ==================================================

         476.9033        532.3954        539.1873
 ------------------------------------------------
          -0.5120          0.4424          0.7363
          -0.6386         -0.7693          0.0181
           0.5745         -0.4609          0.6764


 The rotational contribution to the molecular entropy includes
 a term, dependent on the symmetry number sigma. The results 
 reported below were computed using sigma = 1, determined from
 the point group symmetry of the input geometry (NOSYM). 
 If this is not the correct symmetry, try symmetrizing the molecule before
 running the calculation (note: linear molecules should be aligned along one
 of the Cartesian axes).
 Contributions from frequencies below 20 1/cm are not included in
 the vibrational sums. Their contributions, if any, are reported separately.


     Temp                                                       Transl     Rotat    Vibrat     Total
     ----                                                       ------     -----    ------     -----

     298.15   Entropy (cal/mole-K):                             41.172    26.418    13.145    80.736
              Internal Energy (Kcal/mole):                       0.889     0.889    15.073    16.850
              Constant Volume Heat Capacity (cal/mole-K):        2.981     2.981    14.096    20.057

              Summary of energy terms
                                                   hartree              eV         kcal/mol           kJ/mol
                                      --------------------     -----------       ----------      -----------
              Bond Energy:              -1.750556170211716        -47.6351         -1098.49         -4596.08
              Internal Energy:           0.026852337011002          0.7307            16.85            70.50
              pV/n = RT:                 0.000944186013486          0.0257             0.59             2.48
              Enthalpy H:               -1.722759647187229        -46.8787         -1081.05         -4523.10
              -T*S:                     -0.038360080017384         -1.0438           -24.07          -100.71
              Gibbs free energy:        -1.761119727204613        -47.9225         -1105.12         -4623.82
 
 
 ========================
 No memory problems found
 ========================
 
 Maximum number of active allocate calls:        1958
 
 *******************************************************************************

                             A D F   E X I T
 NORMAL TERMINATION



 =================
 Timing Statistics
 =================
  
 Total Used :                     CPU=      100.24      System=       41.48     Elapsed=      149.15

 Calls  Section                     ( Mean, Percentage )
 ---------------------------------------------------------------------------------------------------
     3  ><      ................      0.00    0.00             0.00    0.01             0.00    0.00
     1  INIT    ................      0.38    0.38             0.02    0.05             0.41    0.27
     1  GEOMET  ................      0.03    0.03             0.02    0.04             0.06    0.04
     1  FRAGM   ................      0.02    0.02             0.02    0.06             0.05    0.04
     1  INPUTA  ................      0.00    0.00             0.00    0.00             0.00    0.00
     1  ATDEN   ................      0.00    0.00             0.01    0.02             0.01    0.01
    14  MAINSY  ................      0.02    0.32             0.00    0.15             0.04    0.36
    14  SYMFIT  ................      0.00    0.03             0.00    0.00             0.00    0.03
    14  CORORT  ................      0.00    0.05             0.00    0.01             0.00    0.04
    14  SYMORB  ................      0.00    0.03             0.00    0.03             0.00    0.04
    14  CLSMAT  ................      0.01    0.07             0.00    0.01             0.01    0.07
    14  ORTHON  ................      0.01    0.08             0.00    0.03             0.01    0.06
    14  GENPT   ................      0.06    0.87             0.00    0.10             0.07    0.63
    14  PTBAS   ................      0.04    0.54             0.01    0.28             0.05    0.47
   211  FOCKY   ................      0.19   40.06             0.07   37.75             0.28   39.26
   211  FOCKTR  ................      0.00    0.58             0.00    0.03             0.00    0.42
   211  SDIIS   ................      0.00    0.54             0.00    0.21             0.00    0.57
    14  TOTEN   ................      0.30    4.26             0.03    0.95             0.36    3.38
    14  POPAN   ................      0.00    0.04             0.00    0.04             0.01    0.05
    14  DEBYE   ................      0.00    0.05             0.00    0.06             0.01    0.05
    14  INPUTE  ................      0.00    0.01             0.00    0.00             0.00    0.01
    14  SYMORE  ................      0.00    0.02             0.00    0.01             0.00    0.01
    27  ELNRGY  ................      0.11    2.86             0.00    0.24             0.12    2.11
    13  ENGRAD  ................      0.00    0.00             0.00    0.02             0.00    0.01
     1  COREPS  ................      0.18    0.18             0.01    0.03             0.20    0.14
     1  METS    ................      0.00    0.00             0.00    0.00             0.00    0.00
     1  CETS    ................      0.00    0.00             0.00    0.01             0.01    0.01
     1  POPUL   ................      0.00    0.00             0.01    0.02             0.01    0.01
     1  ENHESS  ................     49.04   48.92            24.81   59.82            77.40   51.89
     1  EXIT PROCEDURE .........      0.05    0.05             0.01    0.03             0.07    0.04


 Currently Open Files (EXIT00)
 ====================

 Unit    Access Format  Status   Type       Ident (file)
 -------------------------------------------------------
   3      SEQ    FORM   TRANSP  NORMAL      LOGFILE
                                          ( logfile )

