
 *******************************************************************************
 *                                                                             *
 *  -------------------------------------                                      *
 *   Amsterdam Density Functional  (ADF)         2019                          *
 *  -------------------------------------                                      *
 *                                               r74351 2019-04-25             *
 *                                                                             *
 *                                                                             *
 *                            =====================                            *
 *                            |                   |                            *
 *                            |     D I R A C     |                            *
 *                            |                   |                            *
 *                            =====================                            *
 *                                                                             *
 *                                                                             *
 *   Online information and documentation:  https://www.scm.com/support/       *
 *   E-mail:  support@scm.com   info@scm.com                                   *
 *                                                                             *
 *   Scientific publications using ADF results must be properly referenced     *
 *   See the User Manuals (or the web site) for recommended citations          *
 *   The terms and conditions of the End User License Agreement apply to       *
 *   the use of ADF, https://www.scm.com/license-terms/                        *
 *                                                                             *
 **********************  x86_64_linux_intel / intelmpi  ************************
 
 Licensed to: Dr. Carles Bo / Institute of Chemical Research of Catalonia ( (ICIQ) / Tarragona / Spain 2022-11-28 14:37:29
 SCM User ID: u7609
  
 DIRAC 2019  RunTime: Mar10-2023 12:06:03  Nodes: 1  Procs: 1

 Temporary files are created in /scratch/kid_0.229839555

1
 HYDROGEN ATOM RELATIVISTIC, Point Nuc, A and c from libtc   
 N J RN H ZN XION ANUC CLIGHT
 5000    1100.00000000197.36710137  1.00000000  0.00000000    1.007825  0.1370360E+03
  PH   PHI     EPS        DEL        DELRVR
  0.30  0.30     2500.00  0.00001000  0.00001000
 IDIRC  NC1  NDEBU NPRIN  IPUN IRCOR IWCOR
   1   300     0     0     0     0     0
   XALPHA      XLATTER      RNUC
  0.70000000  0.00000000  0.00000000 Point Charge
   XN   XL   XJ      XE          XZ      XDELL
  1.0  0.0  0.5      -1.000       1.000     0.00000
 ICORP=  0  NPCL=  0  DEMP=0.00  PEPS=0.000000
 R(1)=  0.1000000E-08 D=  0.1005080E+01 RNUC=  0.0000000E+00
 converged at cycle   32  DENSITY AVERAGING    0.2400
  MAXIMUM ERROR IN R.V(R) IS   0.79874357E-05
 Q,EY,EV,EZ,ESUM,ETOT,RHO  0.100000E+01 -0.266614E+00 -0.619969E+00 -0.910779E+00 -0.203940E+00 -0.415998E+00  0.337036E-17


 DIRAC CALCULATION
1                    HYDROGEN ATOM RELATIVISTIC, Point Nuc, A and c from libtc


 EXCHANGE COEFFICIENT=  0.7000000           TAIL CORRECTION=  0.           NUCLEAR RADIUS=  0.000E+00
0                       ORBITAL    N    L    J     ELECTRONS     EIGENVALUE                DELTA OF EIGENV.

                          1S1/2  1.0  0.0  0.5     1.000       -0.2039397E+00                 0.2720093E-06


                                        NUCLEAR CHARGE=    1.000000
                            INTEGRAL OF CHARGE DENSITY=    1.000000
                           SUM OF THE ORBITAL ENERGIES=     -0.2039
                                          TOTAL ENERGY=     -0.4160
                                        KINETIC ENERGY=      0.4160
                             NUCLEAR ATTRACTION ENERGY=     -0.9108
                             ELECTRON REPULSION ENERGY=      0.2787
                                       EXCHANGE ENERGY=     -0.2000

 *******************************************************************************

                             D I R A C   E X I T
 NORMAL TERMINATION



 =================
 Timing Statistics
 =================
  
 Total Used :                     CPU=        0.06      System=        0.00     Elapsed=        0.07

 Calls  Section                     ( Mean, Percentage )
 ---------------------------------------------------------------------------------------------------
     2  ><      ................      0.00    0.00             0.00    0.00             0.00    0.01
     1  EXIT PROCEDURE .........      0.06  100.00             0.00    0.00             0.07   99.99


 Currently Open Files (EXIT00)
 ====================

 Unit    Access Format  Status   Type       Ident (file)
 -------------------------------------------------------
   3      SEQ    FORM   TRANSP  NORMAL      LOGFILE
                                          ( logfile )
 
Create H   file=TZP-H
XC
  GGA PBE
End
relativistic ZORA
Corepotentials t12.rel
End

 *******************************************************************************
 *                                                                             *
 *  -------------------------------------                                      *
 *   Amsterdam Density Functional  (ADF)         2019                          *
 *  -------------------------------------                                      *
 *                                               r74351 2019-04-25             *
 *                                                                             *
 *                                                                             *
 *                              =================                              *
 *                              |               |                              *
 *                              |     A D F     |                              *
 *                              |               |                              *
 *                              =================                              *
 *                                                                             *
 *                                                                             *
 *   Online information and documentation:  https://www.scm.com/support/       *
 *   E-mail:  support@scm.com   info@scm.com                                   *
 *                                                                             *
 *   Scientific publications using ADF results must be properly referenced     *
 *   See the User Manuals (or the web site) for recommended citations          *
 *   The terms and conditions of the End User License Agreement apply to       *
 *   the use of ADF, https://www.scm.com/license-terms/                        *
 *                                                                             *
 **********************  x86_64_linux_intel / intelmpi  ************************
 
 Licensed to: Dr. Carles Bo / Institute of Chemical Research of Catalonia ( (ICIQ) / Tarragona / Spain 2022-11-28 14:37:29
 SCM User ID: u7609
  
 ADF 2019  RunTime: Mar10-2023 12:06:03  Nodes: 1  Procs: 1

 Temporary files are created in /scratch/kid_0.187195927

 Hydrogen (TZP)



 ===========================
 A T T A C H E D   F I L E S
 ===========================
  
 CREATE - Data File:    TZP-H
                        Hydrogen (TZP)
 Core Potentials:
         file : t12.rel



 ===============================
 M O D E L   P A R A M E T E R S
 ===============================
  
 DENSITY FUNCTIONAL POTENTIAL (scf)
    LDA:                               PW92                                    == Not Default ==
    Gradient Corrections:              PBEc PBEx                               == Not Default ==

 SPIN  (restricted / unrestr.)
    Molecule:                          Restricted                               

 OTHER ASPECTS
    Relativistic Corrections:          scalar (ZORA,MAPA)                      == Not Default ==

    Nuclear Charge Density Model:      Point Charge Nuclei                      
    Core Treatment:                    Frozen Orbital(s)                        

    Hyperfine or Zeeman Interaction:   ---                                      



 =====================================
 S Y M M E T R Y ,   E L E C T R O N S
 =====================================
  
 Symmetry: ATOM

 Irreducible Representations, including subspecies
 -------------------------------------------------
 S
 P:x  P:y  P:z
 D:z2  D:x2-y2  D:xy  D:xz  D:yz
 F:z3  F:z  F:xyz  F:z2x  F:z2y  F:x  F:y


 Configuration of Valence Electrons
 ==================================

          Occupation Numbers
          -------------------------------------------------
 S        1
 P        0
 D        0
 F        0
          -------------------------------------------------

 Total:   1

 Net Charge: 0 (Nuclei minus Electrons)

 Preset values for MO occupations will be applied through SCF cycle no. 1000000
 Thereafter, the program will assign electrons to MOs that are spatially
 similar to the occupied MOs in a "reference" cycle ("KeepOrbitals").
 The reference cycle is always the PREVIOUS cycle: it will evolve with
 the SCF procedure.



 ================================
 (Slater-type)  F U N C T I O N S  ***  (Basis and Fit)  ***
 ================================
  

 Atom Type    1  (H)
 ==============

 Valence Basis Sets:   4
 -----------------------
   1 S    0.690000
   1 S    0.920000
   1 S    1.580000
   2 P    1.250000


 BAS: List of all Elementary Cartesian Basis Functions
 =====================================================

 The numbering in the list below (to the right of the function characteristics) is referred
 to in print-outs of MO eigenvectors and Mulliken populations in the BAS representation
 (as contrasted to the SFO representation).

 Notes:
 1. The functions are characterized by a polynomial prefactor (powers of x,y,z and r) and
    an exponential decay factor alpha.
 2. Since the basis sets are specific for an atom TYPE, the individual functions occur on
    all atoms of that type.
 3. The word 'Core' in the left margin signals that it is a Core Function (CF) : not a
    degree of freedom in the valence set, but only used to ensure orthogonalization of
    the other valence basis functions on the frozen Core Orbitals.


 (power of) X  Y  Z  R     Alpha  on Atom
            ==========     =====     ==========

 H                                    1
                                  ---------------------------------------------------------------------------
            0  0  0  0     0.690      1
            0  0  0  0     0.920      2
            0  0  0  0     1.580      3
            1  0  0  0     1.250      4
            0  1  0  0     1.250      5
            0  0  1  0     1.250      6

 Total number of charge fitting functions (nprimf)        50
 Total number of Cartesian basis functions (naos)          6
 Total number of Cartesian core functions  (ncos)          0



 BAS: List of all Elementary Cartesian Basis Functions
 =====================================================

 The numbering in the list below (to the right of the function characteristics) is referred
 to in print-outs of MO eigenvectors and Mulliken populations in the BAS representation
 (as contrasted to the SFO representation).

 Notes:
 1. The functions are characterized by a polynomial prefactor (powers of x,y,z and r) and
    an exponential decay factor alpha.
 2. Since the basis sets are specific for an atom TYPE, the individual functions occur on
    all atoms of that type.
 3. The word 'Core' in the left margin signals that it is a Core Function (CF) : not a
    degree of freedom in the valence set, but only used to ensure orthogonalization of
    the other valence basis functions on the frozen Core Orbitals.


 (power of) X  Y  Z  R     Alpha  on Atom
            ==========     =====     ==========

 H                                    1
                                  ---------------------------------------------------------------------------
            0  0  0  0     0.690      1
            0  0  0  0     0.920      2
            0  0  0  0     1.580      3
            1  0  0  0     1.250      4
            0  1  0  0     1.250      5
            0  0  1  0     1.250      6
1
 ***************************************************************************************************



                                              ***********************
                                              *  T E C H N I C A L  *
                                              ***********************
  



 =============================================================
 P A R A L L E L I Z A T I O N  and  V E C T O R I Z A T I O N
 =============================================================
  
 Nr of parallel processes:                                1
 Maximum vector length in NumInt loops:                 128



 =====================
 S C F   U P D A T E S
 =====================
  
 Max. nr. of cycles:                               300
 Convergence criterion:                              0.0000000100
   secondary criterion:                              0.0000000100

 Mix parameter (when DIIS does not apply):           0.2000000000
 Special mix parameter for the first cycle:          1.0000000000
 Mixed ADIIS+SDIIS will be used                  
    Max number of expansion vectors:                10
    Pure ADIIS when Max([F,P]) is above              0.1000000000
    Pure SDIIS when Max([F,P]) is below              0.0010000000
 Automatic ElectronSmearing (in case of problematic SCF convergence) disabled



 =================
 P R E C I S I O N  ***  (General: NumInt, NeglectFunctionTails, ...)  ***
 =================
  

 NumInt:           Target precision:                12.0000000000
 -------           Initial precision:               10.0000000000
                   Min. precision (optimization):   10.0000000000

 Neglect Functions:          Basis functions:        0.1000000000E-13
 ------------------          Fit functions:          0.1000000000E-13



 ===========================
 L I N E A R   S C A L I N G
 ===========================
  

 Cut-off radii density fit:                        0.1000000000E-97
 Overlap cut-off criterion AO matrix elements:     0.1000000000E-97
 Cut-offs for Coulomb potential and fitted density:0.1000000000E-97
 Cut-off criterion for Coulomb multipole terms:    0.1000000000E-97
 Progressive Convergence parameter:                 0.000000000    
1
 ***************************************************************************************************



                                            ***************************
                                            *  C O M P U T A T I O N  *
                                            ***************************
  

 Number of elements of the density matrix on this node (used, total):        21        21



 ===========================================
 Numerical Integration : Fuzzy Cells (Becke)
 ===========================================
  
 Becke grid quality: VERYGOOD       
  
 Lebedev angular grid order:             min:  13 max:  41
 Nr. of radial points:                   min:  64 max:  64

 Total nr. of points:         64
 Nr. of blocks:                1
 Block length:                64
 Nr. of dummy points:          0


 Test of Precision of the Numerical Integration Grid
 ===================================================

 Integral of the Total Core Density:                   0.00000000000000



 ========================
 Density Fitting (zlmFit)
 ========================
  
 ZlmFit Fit Quality: VERYGOOD       
  
 Max L-expansion:                        min:   0 max:   0
 Nr. of radial interpolation points:     min: 120 max: 120



 =====
 S C F  ***  ScaSCF  ***
 =====
  

 CYCLE    1
 SCF Error: norm([F,P])=      0.000000000000, max([F,P])=      0.000000000000
 orbitals (Q,E):
 ---------------
 S :1...3            ( 1.00    -0.5000)  ( 0.00    -0.0900)  ( 0.00     1.2936)
 P :1...1            ( 0.00     0.1562)

 CYCLE    2
 SCF Error: norm([F,P])=      0.031537872292, max([F,P])=      0.030110494752
 orbitals (Q,E):
 ---------------
 S :1...2            ( 1.00    -0.2218)  ( 0.00     0.1019)
 P :1...1            ( 0.00     0.4189)

 CYCLE    3
  SDIIS (wt  0.000):  0.1996  0.8004
 A-DIIS (wt  1.000):  0.0000  1.0000
  DIIS coefficients:  0.0000  1.0000
 SCF Error: norm([F,P])=      0.008617989401, max([F,P])=      0.008343029399
 orbitals (Q,E):
 ---------------
 S :1...2            ( 1.00    -0.2422)  ( 0.00     0.0889)
 P :1...1            ( 0.00     0.4024)

 CYCLE    4
  SDIIS (wt  0.993):  0.1666  0.8334
 A-DIIS (wt  0.007):  0.0000  1.0000
  DIIS coefficients:  0.1654  0.8346
 SCF Error: norm([F,P])=      0.001732350026, max([F,P])=      0.001718616814
 orbitals (Q,E):
 ---------------
 S :1...2            ( 1.00    -0.2385)  ( 0.00     0.0908)
 P :1...1            ( 0.00     0.4054)

 CYCLE    5
  SDIIS (wt  1.000):  0.0236  0.9764
  DIIS coefficients:  0.0236  0.9764
 SCF Error: norm([F,P])=      0.000043673449, max([F,P])=      0.000039769875
 orbitals (Q,E):
 ---------------
 S :1...2            ( 1.00    -0.2386)  ( 0.00     0.0908)
 P :1...1            ( 0.00     0.4054)

 CYCLE    6
  SDIIS (wt  1.000): -0.0577  1.0577
  DIIS coefficients: -0.0577  1.0577
 SCF Error: norm([F,P])=      0.000002383805, max([F,P])=      0.000002158128
 orbitals (Q,E):
 ---------------
 S :1...2            ( 1.00    -0.2386)  ( 0.00     0.0908)
 P :1...1            ( 0.00     0.4054)

 CYCLE    7
  SDIIS (wt  1.000): -0.0032  1.0032
  DIIS coefficients: -0.0032  1.0032
 SCF Error: norm([F,P])=      0.000000007721, max([F,P])=      0.000000007228
 orbitals (Q,E):
 ---------------
 S :1...2            ( 1.00    -0.2386)  ( 0.00     0.0908)
 P :1...1            ( 0.00     0.4054)

 SCF CONVERGED

 CYCLE    8
1
 ***************************************************************************************************



                                                *******************
                                                *  R E S U L T S  *
                                                *******************
  
 *** Using FIT density in Focky
  SDIIS (wt  1.000):  0.0192  0.9808
  DIIS coefficients:  0.0192  0.9808
 SCF Error: norm([F,P])=      0.000000000151, max([F,P])=      0.000000000141

 Scaled ZORA Orbital Energies, per Irrep and Spin:
 =================================================
                        Occup              E (au)              E (eV)       Diff (eV) with prev. cycle
                        -----      --------------------        ------       --------------------------
 S
               1        1.000     -0.23861775226993E+00        -6.493               7.43E-09
               2        0.000      0.90791701709251E-01         2.471
               3        0.000      0.15217530108908E+01        41.409
 P
               1        0.000      0.40537978060393E+00        11.031


 Partially Occupied:
               1 S                -0.23861775226993E+00
  
 LUMO :        2 S                 0.90791701709251E-01
  


 Orbital Energies, all Irreps
 ========================================

 Irrep        no.  (spin)   Occup              E (au)                E (eV)
 ---------------------------------------------------------------------------
 S             1             1.00       -0.23861775226993E+00        -6.4931
 S             2             0.00        0.90791701709251E-01         2.4706
 P             1             0.00        0.40537978060393E+00        11.0309
 S             3             0.00        0.15217530108908E+01        41.4090


 All Electron Calculation, thus no Orbital Energies of the Core Orbitals are calculated



 =======================================
 M U L L I K E N   P O P U L A T I O N S
 =======================================
  
 The survey below gives for each atom:
 a) the total charge (Z minus electrons)
 b) the net spin polarization (nr of electrons spin-A minus spin-B)
 c) for each spin the atomic electron valence density (integrated) per L-value.

 Atom              Charge    Spin density          S         P         D         F
 ----              ------    ------------       ------    ------    ------    ------
 1 H              -0.0000                       1.0000    0.0000    0.0000    0.0000

 Populations of individual BAS functions
 ----------------------------------------
 1 H            0.2104  0.6788  0.1107  0.0000  0.0000  0.0000

 Gross Charges per Atom (Z minus electrons)
 ==========================================
            -0.0000
 Net Total: -0.00000000



 =======================================================================
 Electrostatic potential at the Nuclei due to electrons and other nuclei
 =======================================================================
  
         Atom                  Potential
         ----                  ---------
     1)   H                   0.94468022
 
 
 ========================
 No memory problems found
 ========================
 
 Maximum number of active allocate calls:         306
 
 *******************************************************************************

                             A D F   E X I T
 NORMAL TERMINATION



 =================
 Timing Statistics
 =================
  
 Total Used :                     CPU=        0.32      System=        0.02     Elapsed=        0.40

 Calls  Section                     ( Mean, Percentage )
 ---------------------------------------------------------------------------------------------------
     3  ><      ................      0.00    1.25             0.00    0.00             0.00    1.23
     1  INIT    ................      0.06   20.00             0.00   16.67             0.08   18.87
     1  GEOMET  ................      0.02    5.00             0.00    0.00             0.03    8.50
     1  INPUTA  ................      0.00    0.00             0.00   16.67             0.00    0.88
     1  MAINSY  ................      0.01    2.50             0.00   16.67             0.02    3.90
     1  SYMFIT  ................      0.00    0.00             0.00    0.00             0.00    0.39
     1  CORORT  ................      0.00    0.00             0.00    0.00             0.00    0.37
     1  SYMORB  ................      0.00    0.00             0.00    0.00             0.00    0.18
     1  CLSMAT  ................      0.01    2.50             0.00    0.00             0.01    1.30
     1  ORTHON  ................      0.00    1.25             0.00    0.00             0.01    1.26
     1  GENPT   ................      0.01    3.75             0.00    0.00             0.01    3.04
     1  PTBAS   ................      0.00    0.00             0.00    0.00             0.01    1.27
     8  FOCKY   ................      0.02   47.50             0.00   33.33             0.02   43.21
     8  FOCKTR  ................      0.00    1.25             0.00    0.00             0.00    1.03
     8  SDIIS   ................      0.00    7.50             0.00    0.00             0.00    5.87
     1  COREPS  ................      0.01    3.75             0.00    0.00             0.01    3.64
     1  POPAN   ................      0.00    0.00             0.00    0.00             0.00    1.19
     1  DEBYE   ................      0.00    1.25             0.00    0.00             0.00    0.55
     1  EXIT PROCEDURE .........      0.01    2.50             0.00   16.67             0.01    3.32


 Currently Open Files (EXIT00)
 ====================

 Unit    Access Format  Status   Type       Ident (file)
 -------------------------------------------------------
   3      SEQ    FORM   TRANSP  NORMAL      LOGFILE
                                          ( logfile )

 ***************************************************************************************************
 (LOGFILE)
 <Mar10-2023> <12:06:03>  DIRAC 2019  RunTime: Mar10-2023 12:06:03  Nodes: 1  Procs: 1
 <Mar10-2023> <12:06:03>  NORMAL TERMINATION
 <Mar10-2023> <12:06:03>  END
 <Mar10-2023> <12:06:03>  ADF 2019  RunTime: Mar10-2023 12:06:03  Nodes: 1  Procs: 1
 <Mar10-2023> <12:06:03>  Hydrogen (TZP)
 <Mar10-2023> <12:06:03>  RunType   : CREATE
 <Mar10-2023> <12:06:03>  Net Charge: 0 (Nuclei minus Electrons)
 <Mar10-2023> <12:06:03>  Symmetry  : ATOM
  Coordinates
    Atom         X           Y           Z   (Angstrom)
    1.H         0.000000    0.000000    0.000000
 <Mar10-2023> <12:06:03>  >>>> CORORT
 <Mar10-2023> <12:06:03>  >>>> CLSMAT
 <Mar10-2023> <12:06:03>  >>>> ORTHON
 <Mar10-2023> <12:06:03>  >>>> GENPT
 <Mar10-2023> <12:06:03>  Block Length=  64
 <Mar10-2023> <12:06:03>  >>>> PTBAS
 <Mar10-2023> <12:06:03>  >>>> CYCLE
 <Mar10-2023> <12:06:03>              |Error|         MaxErr       Wt(A-DIIS)
 <Mar10-2023> <12:06:03>      1      0.00000000      0.00000000
 <Mar10-2023> <12:06:03>      2      0.03153787      0.03011049
 <Mar10-2023> <12:06:03>      3      0.00861799      0.00834303    100.0
 <Mar10-2023> <12:06:03>      4      0.00173235      0.00171862      0.7
 <Mar10-2023> <12:06:03>      5      0.00004367      0.00003977      0.0
 <Mar10-2023> <12:06:03>      6      0.00000238      0.00000216      0.0
 <Mar10-2023> <12:06:03>      7      0.00000001      0.00000001      0.0
 <Mar10-2023> <12:06:03>  SCF converged
 <Mar10-2023> <12:06:03>      8      0.00000000      0.00000000      0.0
 <Mar10-2023> <12:06:03>  >>>> POPAN
 <Mar10-2023> <12:06:03>  >>>> DEBYE
 <Mar10-2023> <12:06:03>  NORMAL TERMINATION
 <Mar10-2023> <12:06:03>  END

 *******************************************************************************
 *                                                                             *
 *  -------------------------------------                                      *
 *   Amsterdam Density Functional  (ADF)         2019                          *
 *  -------------------------------------                                      *
 *                                               r74351 2019-04-25             *
 *                                                                             *
 *                                                                             *
 *                            =====================                            *
 *                            |                   |                            *
 *                            |     D I R A C     |                            *
 *                            |                   |                            *
 *                            =====================                            *
 *                                                                             *
 *                                                                             *
 *   Online information and documentation:  https://www.scm.com/support/       *
 *   E-mail:  support@scm.com   info@scm.com                                   *
 *                                                                             *
 *   Scientific publications using ADF results must be properly referenced     *
 *   See the User Manuals (or the web site) for recommended citations          *
 *   The terms and conditions of the End User License Agreement apply to       *
 *   the use of ADF, https://www.scm.com/license-terms/                        *
 *                                                                             *
 **********************  x86_64_linux_intel / intelmpi  ************************
 
 Licensed to: Dr. Carles Bo / Institute of Chemical Research of Catalonia ( (ICIQ) / Tarragona / Spain 2022-11-28 14:37:29
 SCM User ID: u7609
  
 DIRAC 2019  RunTime: Mar10-2023 12:06:04  Nodes: 1  Procs: 1

 Temporary files are created in /scratch/kid_0.2111910737

1
 MOLYBDENUM ATOM 3d CORE RELATIVISTIC, Point Nuc, A and c fro
 N J RN H ZN XION ANUC CLIGHT
 5000   15100.00000000197.36710137 42.00000000  0.00000000   97.905406  0.1370360E+03
  PH   PHI     EPS        DEL        DELRVR
  0.30  0.30     2500.00  0.00001000  0.00001000
 IDIRC  NC1  NDEBU NPRIN  IPUN IRCOR IWCOR
   1   300     0     0     0     0     9
   XALPHA      XLATTER      RNUC
  0.70000000  0.00000000  0.00000000 Point Charge
   XN   XL   XJ      XE          XZ      XDELL
  1.0  0.0  0.5   -1500.000       2.000     0.00000
  2.0  0.0  0.5    -325.000       2.000     0.00000
  2.0  1.0  0.5    -325.000       2.000     0.00000
  2.0  1.0  1.5    -325.000       4.000     0.00000
  3.0  0.0  0.5     -70.000       2.000     0.00000
  3.0  1.0  0.5     -70.000       2.000     0.00000
  3.0  1.0  1.5     -70.000       4.000     0.00000
  3.0  2.0  1.5     -60.000       4.000     0.00000
  3.0  2.0  2.5     -60.000       6.000     0.00000
  4.0  0.0  0.5     -10.000       2.000     0.00000
  4.0  1.0  0.5     -10.000       2.000     0.00000
  4.0  1.0  1.5     -10.000       4.000     0.00000
  4.0  2.0  1.5      -1.000       4.000     0.00000
  4.0  2.0  2.5      -1.000       1.000     0.00000
  5.0  0.0  0.5      -0.500       1.000     0.00000
 ICORP=  0  NPCL=  0  DEMP=0.00  PEPS=0.000000
 R(1)=  0.1000000E-08 D=  0.1005080E+01 RNUC=  0.0000000E+00
 converged at cycle   41  DENSITY AVERAGING    0.2400
  MAXIMUM ERROR IN R.V(R) IS   0.93203452E-05
 Q,EY,EV,EZ,ESUM,ETOT,RHO  0.420000E+02 -0.161898E+03 -0.662509E+04 -0.978397E+04 -0.242700E+04 -0.404691E+04  0.342495E-11


 DIRAC CALCULATION
1                    MOLYBDENUM ATOM 3d CORE RELATIVISTIC, Point Nuc, A and c from libtc


 EXCHANGE COEFFICIENT=  0.7000000           TAIL CORRECTION=  0.           NUCLEAR RADIUS=  0.000E+00
0                       ORBITAL    N    L    J     ELECTRONS     EIGENVALUE                DELTA OF EIGENV.

                          1S1/2  1.0  0.0  0.5     2.000       -0.7276812E+03                 0.2822496E-04
                          2S1/2  2.0  0.0  0.5     2.000       -0.1028194E+03                 0.1725465E-04
                          2P1/2  2.0  1.0  0.5     2.000       -0.9468016E+02                 0.1864325E-04
                          2P3/2  2.0  1.0  1.5     4.000       -0.9076266E+02                 0.1832345E-04
                          3S1/2  3.0  0.0  0.5     2.000       -0.1747094E+02                 0.5979346E-05
                          3P1/2  3.0  1.0  0.5     2.000       -0.1436574E+02                 0.6275079E-05
                          3P3/2  3.0  1.0  1.5     4.000       -0.1371946E+02                 0.5984426E-05
                          3D3/2  3.0  2.0  1.5     4.000       -0.8203697E+01                 0.6709395E-05
                          3D5/2  3.0  2.0  2.5     6.000       -0.8081013E+01                 0.6610438E-05
                          4S1/2  4.0  0.0  0.5     2.000       -0.2338238E+01                 0.2446887E-06
                          4P1/2  4.0  1.0  0.5     2.000       -0.1452045E+01                 0.2971982E-06
                          4P3/2  4.0  1.0  1.5     4.000       -0.1358936E+01                 0.3186552E-06
                          4D3/2  4.0  2.0  1.5     4.000       -0.1184046E+00                 0.3378248E-06
                          4D5/2  4.0  2.0  2.5     1.000       -0.1108976E+00                 0.3342679E-06
                          5S1/2  5.0  0.0  0.5     1.000       -0.1320069E+00                 0.9757102E-07


                                        NUCLEAR CHARGE=   42.000000
                            INTEGRAL OF CHARGE DENSITY=   42.000000
                           SUM OF THE ORBITAL ENERGIES=  -2426.9970
                                          TOTAL ENERGY=  -4046.9128
                                        KINETIC ENERGY=   4198.0886
                             NUCLEAR ATTRACTION ENERGY=  -9783.9685
                             ELECTRON REPULSION ENERGY=   1660.3903
                                       EXCHANGE ENERGY=   -121.4232

 *******************************************************************************

                             D I R A C   E X I T
 NORMAL TERMINATION



 =================
 Timing Statistics
 =================
  
 Total Used :                     CPU=        0.36      System=        0.01     Elapsed=        0.37

 Calls  Section                     ( Mean, Percentage )
 ---------------------------------------------------------------------------------------------------
     2  ><      ................      0.00    0.00             0.00    0.00             0.00    0.00
     1  EXIT PROCEDURE .........      0.36  100.00             0.01  100.00             0.37  100.00


 Currently Open Files (EXIT00)
 ====================

 Unit    Access Format  Status   Type       Ident (file)
 -------------------------------------------------------
   3      SEQ    FORM   TRANSP  NORMAL      LOGFILE
                                          ( logfile )
 
Create Mo   file=TZP-Mo.3d
XC
  GGA PBE
End
relativistic ZORA
Corepotentials t12.rel
End

 *******************************************************************************
 *                                                                             *
 *  -------------------------------------                                      *
 *   Amsterdam Density Functional  (ADF)         2019                          *
 *  -------------------------------------                                      *
 *                                               r74351 2019-04-25             *
 *                                                                             *
 *                                                                             *
 *                              =================                              *
 *                              |               |                              *
 *                              |     A D F     |                              *
 *                              |               |                              *
 *                              =================                              *
 *                                                                             *
 *                                                                             *
 *   Online information and documentation:  https://www.scm.com/support/       *
 *   E-mail:  support@scm.com   info@scm.com                                   *
 *                                                                             *
 *   Scientific publications using ADF results must be properly referenced     *
 *   See the User Manuals (or the web site) for recommended citations          *
 *   The terms and conditions of the End User License Agreement apply to       *
 *   the use of ADF, https://www.scm.com/license-terms/                        *
 *                                                                             *
 **********************  x86_64_linux_intel / intelmpi  ************************
 
 Licensed to: Dr. Carles Bo / Institute of Chemical Research of Catalonia ( (ICIQ) / Tarragona / Spain 2022-11-28 14:37:29
 SCM User ID: u7609
  
 ADF 2019  RunTime: Mar10-2023 12:06:04  Nodes: 1  Procs: 1

 Temporary files are created in /scratch/kid_0.649164917

 Molybdenum (TZP, 3d frozen)



 ===========================
 A T T A C H E D   F I L E S
 ===========================
  
 CREATE - Data File:    TZP-Mo.3d
                        Molybdenum (TZP, 3d frozen)
 Core Potentials:
         file : t12.rel



 ===============================
 M O D E L   P A R A M E T E R S
 ===============================
  
 DENSITY FUNCTIONAL POTENTIAL (scf)
    LDA:                               PW92                                    == Not Default ==
    Gradient Corrections:              PBEc PBEx                               == Not Default ==

 SPIN  (restricted / unrestr.)
    Molecule:                          Restricted                               

 OTHER ASPECTS
    Relativistic Corrections:          scalar (ZORA,MAPA)                      == Not Default ==

    Nuclear Charge Density Model:      Point Charge Nuclei                      
    Core Treatment:                    Frozen Orbital(s)                        

    Hyperfine or Zeeman Interaction:   ---                                      



 =====================================
 S Y M M E T R Y ,   E L E C T R O N S
 =====================================
  
 Symmetry: ATOM

 Irreducible Representations, including subspecies
 -------------------------------------------------
 S
 P:x  P:y  P:z
 D:z2  D:x2-y2  D:xy  D:xz  D:yz
 F:z3  F:z  F:xyz  F:z2x  F:z2y  F:x  F:y


 Configuration of Valence Electrons
 ==================================

          Occupation Numbers
          -------------------------------------------------
 S        2 1
 P        6
 D        5
 F        0
          -------------------------------------------------

 Total:   14

 Net Charge: 0 (Nuclei minus Electrons)

 Preset values for MO occupations will be applied through SCF cycle no. 1000000
 Thereafter, the program will assign electrons to MOs that are spatially
 similar to the occupied MOs in a "reference" cycle ("KeepOrbitals").
 The reference cycle is always the PREVIOUS cycle: it will evolve with
 the SCF procedure.



 ================================
 (Slater-type)  F U N C T I O N S  ***  (Basis and Fit)  ***
 ================================
  

 Atom Type    1  (Mo)
 ==============

 Valence Basis Sets:  18
 -----------------------
   1 S   30.500000
   2 S   17.750000
   3 S    8.350000
   2 P   18.600000
   3 P    8.700000
   3 D   10.050000
   4 S    5.100000
   4 S    3.300000
   5 S    2.150000
   5 S    1.350000
   5 S    0.870000
   4 P    4.950000
   4 P    3.300000
   4 P    2.300000
   4 D    3.500000
   4 D    1.850000
   4 D    0.970000
   5 P    1.350000

 Frozen Core Shells
 ------------------
    S:  3
    P:  2
    D:  1


 BAS: List of all Elementary Cartesian Basis Functions
 =====================================================

 The numbering in the list below (to the right of the function characteristics) is referred
 to in print-outs of MO eigenvectors and Mulliken populations in the BAS representation
 (as contrasted to the SFO representation).

 Notes:
 1. The functions are characterized by a polynomial prefactor (powers of x,y,z and r) and
    an exponential decay factor alpha.
 2. Since the basis sets are specific for an atom TYPE, the individual functions occur on
    all atoms of that type.
 3. The word 'Core' in the left margin signals that it is a Core Function (CF) : not a
    degree of freedom in the valence set, but only used to ensure orthogonalization of
    the other valence basis functions on the frozen Core Orbitals.


 (power of) X  Y  Z  R     Alpha  on Atom
            ==========     =====     ==========

 Mo                                   1
                                  ---------------------------------------------------------------------------
    Core    0  0  0  0    30.500      1
    Core    0  0  0  1    17.750      2
    Core    0  0  0  2     8.350      3
    Core    1  0  0  0    18.600      4
    Core    0  1  0  0    18.600      5
    Core    0  0  1  0    18.600      6
    Core    1  0  0  1     8.700      7
    Core    0  1  0  1     8.700      8
    Core    0  0  1  1     8.700      9
    Core    2  0  0  0    10.050     10
    Core    1  1  0  0    10.050     11
    Core    1  0  1  0    10.050     12
    Core    0  2  0  0    10.050     13
    Core    0  1  1  0    10.050     14
    Core    0  0  2  0    10.050     15
            0  0  0  3     5.100     16
            0  0  0  3     3.300     17
            0  0  0  4     2.150     18
            0  0  0  4     1.350     19
            0  0  0  4     0.870     20
            1  0  0  2     4.950     21
            0  1  0  2     4.950     22
            0  0  1  2     4.950     23
            1  0  0  2     3.300     24
            0  1  0  2     3.300     25
            0  0  1  2     3.300     26
            1  0  0  2     2.300     27
            0  1  0  2     2.300     28
            0  0  1  2     2.300     29
            2  0  0  1     3.500     30
            1  1  0  1     3.500     31
            1  0  1  1     3.500     32
            0  2  0  1     3.500     33
            0  1  1  1     3.500     34
            0  0  2  1     3.500     35
            2  0  0  1     1.850     36
            1  1  0  1     1.850     37
            1  0  1  1     1.850     38
            0  2  0  1     1.850     39
            0  1  1  1     1.850     40
            0  0  2  1     1.850     41
            2  0  0  1     0.970     42
            1  1  0  1     0.970     43
            1  0  1  1     0.970     44
            0  2  0  1     0.970     45
            0  1  1  1     0.970     46
            0  0  2  1     0.970     47
            1  0  0  3     1.350     48
            0  1  0  3     1.350     49
            0  0  1  3     1.350     50

 Total number of charge fitting functions (nprimf)       230
 Total number of Cartesian basis functions (naos)         50
 Total number of Cartesian core functions  (ncos)         15



 BAS: List of all Elementary Cartesian Basis Functions
 =====================================================

 The numbering in the list below (to the right of the function characteristics) is referred
 to in print-outs of MO eigenvectors and Mulliken populations in the BAS representation
 (as contrasted to the SFO representation).

 Notes:
 1. The functions are characterized by a polynomial prefactor (powers of x,y,z and r) and
    an exponential decay factor alpha.
 2. Since the basis sets are specific for an atom TYPE, the individual functions occur on
    all atoms of that type.
 3. The word 'Core' in the left margin signals that it is a Core Function (CF) : not a
    degree of freedom in the valence set, but only used to ensure orthogonalization of
    the other valence basis functions on the frozen Core Orbitals.


 (power of) X  Y  Z  R     Alpha  on Atom
            ==========     =====     ==========

 Mo                                   1
                                  ---------------------------------------------------------------------------
    Core    0  0  0  0    30.500      1
    Core    0  0  0  1    17.750      2
    Core    0  0  0  2     8.350      3
    Core    1  0  0  0    18.600      4
    Core    0  1  0  0    18.600      5
    Core    0  0  1  0    18.600      6
    Core    1  0  0  1     8.700      7
    Core    0  1  0  1     8.700      8
    Core    0  0  1  1     8.700      9
    Core    2  0  0  0    10.050     10
    Core    1  1  0  0    10.050     11
    Core    1  0  1  0    10.050     12
    Core    0  2  0  0    10.050     13
    Core    0  1  1  0    10.050     14
    Core    0  0  2  0    10.050     15
            0  0  0  3     5.100     16
            0  0  0  3     3.300     17
            0  0  0  4     2.150     18
            0  0  0  4     1.350     19
            0  0  0  4     0.870     20
            1  0  0  2     4.950     21
            0  1  0  2     4.950     22
            0  0  1  2     4.950     23
            1  0  0  2     3.300     24
            0  1  0  2     3.300     25
            0  0  1  2     3.300     26
            1  0  0  2     2.300     27
            0  1  0  2     2.300     28
            0  0  1  2     2.300     29
            2  0  0  1     3.500     30
            1  1  0  1     3.500     31
            1  0  1  1     3.500     32
            0  2  0  1     3.500     33
            0  1  1  1     3.500     34
            0  0  2  1     3.500     35
            2  0  0  1     1.850     36
            1  1  0  1     1.850     37
            1  0  1  1     1.850     38
            0  2  0  1     1.850     39
            0  1  1  1     1.850     40
            0  0  2  1     1.850     41
            2  0  0  1     0.970     42
            1  1  0  1     0.970     43
            1  0  1  1     0.970     44
            0  2  0  1     0.970     45
            0  1  1  1     0.970     46
            0  0  2  1     0.970     47
            1  0  0  3     1.350     48
            0  1  0  3     1.350     49
            0  0  1  3     1.350     50
1
 ***************************************************************************************************



                                              ***********************
                                              *  T E C H N I C A L  *
                                              ***********************
  



 =============================================================
 P A R A L L E L I Z A T I O N  and  V E C T O R I Z A T I O N
 =============================================================
  
 Nr of parallel processes:                                1
 Maximum vector length in NumInt loops:                 128



 =====================
 S C F   U P D A T E S
 =====================
  
 Max. nr. of cycles:                               300
 Convergence criterion:                              0.0000000100
   secondary criterion:                              0.0000000100

 Mix parameter (when DIIS does not apply):           0.2000000000
 Special mix parameter for the first cycle:          1.0000000000
 Mixed ADIIS+SDIIS will be used                  
    Max number of expansion vectors:                10
    Pure ADIIS when Max([F,P]) is above              0.1000000000
    Pure SDIIS when Max([F,P]) is below              0.0010000000
 Automatic ElectronSmearing (in case of problematic SCF convergence) disabled



 =================
 P R E C I S I O N  ***  (General: NumInt, NeglectFunctionTails, ...)  ***
 =================
  

 NumInt:           Target precision:                12.0000000000
 -------           Initial precision:               10.0000000000
                   Min. precision (optimization):   10.0000000000

 Neglect Functions:          Basis functions:        0.1000000000E-13
 ------------------          Fit functions:          0.1000000000E-13



 ===========================
 L I N E A R   S C A L I N G
 ===========================
  

 Cut-off radii density fit:                        0.1000000000E-97
 Overlap cut-off criterion AO matrix elements:     0.1000000000E-97
 Cut-offs for Coulomb potential and fitted density:0.1000000000E-97
 Cut-off criterion for Coulomb multipole terms:    0.1000000000E-97
 Progressive Convergence parameter:                 0.000000000    
1
 ***************************************************************************************************



                                            ***************************
                                            *  C O M P U T A T I O N  *
                                            ***************************
  

 Number of elements of the density matrix on this node (used, total):      1275      1275



 ===========================================
 Numerical Integration : Fuzzy Cells (Becke)
 ===========================================
  
 Becke grid quality: VERYGOOD       
  
 Lebedev angular grid order:             min:  13 max:  41
 Nr. of radial points:                   min: 106 max: 106

 Total nr. of points:        106
 Nr. of blocks:                1
 Block length:               106
 Nr. of dummy points:          0


 Test of Precision of the Numerical Integration Grid
 ===================================================

 Integral of the Total Core Density:                  28.00000000969493
 Relative Error:                                       3.462E-10



 ========================
 Density Fitting (zlmFit)
 ========================
  
 ZlmFit Fit Quality: VERYGOOD       
  
 Max L-expansion:                        min:   0 max:   0
 Nr. of radial interpolation points:     min: 230 max: 230



 =====
 S C F  ***  ScaSCF  ***
 =====
  

 CYCLE    1
 SCF Error: norm([F,P])=      0.000000000000, max([F,P])=      0.000000000000
 orbitals (Q,E):
 ---------------
 S :1...5            ( 2.00   -11.6814)  ( 1.00    -6.3532)  ( 0.00    -3.9976)  ( 0.00    -2.6589)
                     ( 0.00    -1.7000)
 P :1...4            ( 6.00   -10.5018)  ( 0.00    -5.8212)  ( 0.00    -3.6400)  ( 0.00    -2.5070)
 D :1...3            ( 5.00    -8.4786)  ( 0.00    -4.5701)  ( 0.00    -2.4939)

 CYCLE    2
  SDIIS (wt  0.000):  1.0000  0.0000
 A-DIIS (wt  1.000):  0.1286  0.8714
  DIIS coefficients:  0.1286  0.8714
 SCF Error: norm([F,P])=      7.148790686087, max([F,P])=      2.364314963741
 orbitals (Q,E):
 ---------------
 S :1...3            ( 2.00    -1.8793)  ( 1.00    -0.4080)  ( 0.00    -0.1761)
 P :1...2            ( 6.00    -1.0989)  ( 0.00    -0.2723)
 D :1...2            ( 5.00    -0.2758)  ( 0.00    -0.0263)

 CYCLE    3
  SDIIS (wt  0.000):  0.3519  0.6481
 A-DIIS (wt  1.000):  0.2376  0.7624
  DIIS coefficients:  0.2376  0.7624
 SCF Error: norm([F,P])=      4.212278243430, max([F,P])=      1.568530983970
 orbitals (Q,E):
 ---------------
 S :1...3            ( 2.00    -3.0898)  ( 1.00    -0.3551)  ( 0.00    -0.0106)
 P :1...2            ( 6.00    -2.0988)  ( 0.00    -0.1560)
 D :1...2            ( 5.00    -0.6568)  ( 0.00     0.0486)

 CYCLE    4
  SDIIS (wt  0.000): -0.0802  0.2380  0.8422
 A-DIIS (wt  1.000):  0.0000  0.2131  0.7869
  DIIS coefficients:  0.0000  0.2131  0.7869
 SCF Error: norm([F,P])=      1.823310320672, max([F,P])=      0.621470068658
 orbitals (Q,E):
 ---------------
 S :1...3            ( 2.00    -2.1329)  ( 1.00    -0.1098)  ( 0.00     0.0530)
 P :1...2            ( 6.00    -1.2112)  ( 0.00     0.0122)
 D :1...2            ( 5.00    -0.0245)  ( 0.00     0.1765)

 CYCLE    5
  SDIIS (wt  0.000): -0.0246 -0.0857  0.3373  0.7730
 A-DIIS (wt  1.000):  0.0000  0.0000  0.3000  0.7000
  DIIS coefficients:  0.0000  0.0000  0.3000  0.7000
 SCF Error: norm([F,P])=      1.058828219057, max([F,P])=      0.362553371378
 orbitals (Q,E):
 ---------------
 S :1...3            ( 2.00    -2.5065)  ( 1.00    -0.1954)  ( 0.00     0.0191)
 P :1...2            ( 6.00    -1.5530)  ( 0.00    -0.0541)
 D :1...2            ( 5.00    -0.2373)  ( 0.00     0.1039)

 CYCLE    6
  SDIIS (wt  0.000):  0.0107 -0.0168 -0.1404  0.2233  0.9231
 A-DIIS (wt  1.000):  0.0000  0.0000  0.0000  0.1685  0.8315
  DIIS coefficients:  0.0000  0.0000  0.0000  0.1685  0.8315
 SCF Error: norm([F,P])=      0.386302370665, max([F,P])=      0.125926487743
 orbitals (Q,E):
 ---------------
 S :1...3            ( 2.00    -2.2911)  ( 1.00    -0.1348)  ( 0.00     0.0380)
 P :1...2            ( 6.00    -1.3509)  ( 0.00    -0.0079)
 D :1...2            ( 5.00    -0.0948)  ( 0.00     0.1449)

 CYCLE    7
  SDIIS (wt  0.044): -0.0008  0.0043  0.0172 -0.1816  0.1952  0.9657
 A-DIIS (wt  0.956):  0.0000  0.0000  0.0000  0.0000  0.3526  0.6474
  DIIS coefficients: -0.0000  0.0002  0.0008 -0.0081  0.3456  0.6615
 SCF Error: norm([F,P])=      0.284734623559, max([F,P])=      0.095612429384
 orbitals (Q,E):
 ---------------
 S :1...3            ( 2.00    -2.3844)  ( 1.00    -0.1556)  ( 0.00     0.0295)
 P :1...2            ( 6.00    -1.4366)  ( 0.00    -0.0239)
 D :1...2            ( 5.00    -0.1494)  ( 0.00     0.1281)

 CYCLE    8
  SDIIS (wt  0.772):  0.0000  0.0002 -0.0034 -0.0193  0.0076  0.2482  0.7667
 A-DIIS (wt  0.228):  0.0000  0.0000  0.0000  0.0000  0.0000  0.0289  0.9711
  DIIS coefficients:  0.0000  0.0002 -0.0026 -0.0149  0.0058  0.1982  0.8133
 SCF Error: norm([F,P])=      0.070427042512, max([F,P])=      0.023581757016
 orbitals (Q,E):
 ---------------
 S :1...3            ( 2.00    -2.3580)  ( 1.00    -0.1494)  ( 0.00     0.0311)
 P :1...2            ( 6.00    -1.4122)  ( 0.00    -0.0192)
 D :1...2            ( 5.00    -0.1332)  ( 0.00     0.1325)

 CYCLE    9
  SDIIS (wt  0.929): -0.0000 -0.0000  0.0002  0.0020 -0.0040 -0.0349  0.1906  0.8461
 A-DIIS (wt  0.071):  0.0000  0.0000  0.0000  0.0000  0.0000  0.0000  0.1077  0.8923
  DIIS coefficients: -0.0000 -0.0000  0.0002  0.0018 -0.0037 -0.0324  0.1847  0.8494
 SCF Error: norm([F,P])=      0.024021634807, max([F,P])=      0.008070140854
 orbitals (Q,E):
 ---------------
 S :1...3            ( 2.00    -2.3650)  ( 1.00    -0.1511)  ( 0.00     0.0305)
 P :1...2            ( 6.00    -1.4187)  ( 0.00    -0.0205)
 D :1...2            ( 5.00    -0.1375)  ( 0.00     0.1313)

 CYCLE   10
  SDIIS (wt  1.000):  0.0000  0.0000 -0.0000 -0.0003  0.0006  0.0038 -0.0155  1.0114
  DIIS coefficients:  0.0000  0.0000 -0.0000 -0.0003  0.0006  0.0038 -0.0155  1.0114
 SCF Error: norm([F,P])=      0.001691537232, max([F,P])=      0.000569379855
 orbitals (Q,E):
 ---------------
 S :1...3            ( 2.00    -2.3645)  ( 1.00    -0.1510)  ( 0.00     0.0305)
 P :1...2            ( 6.00    -1.4182)  ( 0.00    -0.0204)
 D :1...2            ( 5.00    -0.1372)  ( 0.00     0.1314)

 CYCLE   11
  SDIIS (wt  1.000):  0.0000 -0.0000  0.0000  0.0002 -0.0008 -0.0102 -0.0868  1.0976
  DIIS coefficients:  0.0000 -0.0000  0.0000  0.0002 -0.0008 -0.0102 -0.0868  1.0976
 SCF Error: norm([F,P])=      0.000000816018, max([F,P])=      0.000000266639
 orbitals (Q,E):
 ---------------
 S :1...3            ( 2.00    -2.3645)  ( 1.00    -0.1510)  ( 0.00     0.0305)
 P :1...2            ( 6.00    -1.4182)  ( 0.00    -0.0204)
 D :1...2            ( 5.00    -0.1372)  ( 0.00     0.1314)

 CYCLE   12
  SDIIS (wt  1.000): -0.0000  0.0000  0.0001  0.0011  0.0118  0.9869
  DIIS coefficients: -0.0000  0.0000  0.0001  0.0011  0.0118  0.9869
 SCF Error: norm([F,P])=      0.000000024268, max([F,P])=      0.000000008564
 orbitals (Q,E):
 ---------------
 S :1...3            ( 2.00    -2.3645)  ( 1.00    -0.1510)  ( 0.00     0.0305)
 P :1...2            ( 6.00    -1.4182)  ( 0.00    -0.0204)
 D :1...2            ( 5.00    -0.1372)  ( 0.00     0.1314)

 SCF CONVERGED

 CYCLE   13
1
 ***************************************************************************************************



                                                *******************
                                                *  R E S U L T S  *
                                                *******************
  
 *** Using FIT density in Focky
  SDIIS (wt  1.000):  0.0000  0.0000 -0.0009 -0.0131  1.0139
  DIIS coefficients:  0.0000  0.0000 -0.0009 -0.0131  1.0139
 SCF Error: norm([F,P])=      0.000000001716, max([F,P])=      0.000000000646

 Scaled ZORA Orbital Energies, per Irrep and Spin:
 =================================================
                        Occup              E (au)              E (eV)       Diff (eV) with prev. cycle
                        -----      --------------------        ------       --------------------------
 S
               1        2.000     -0.23645412461087E+01       -64.342               1.08E-08
               2        1.000     -0.15095063251582E+00        -4.108               1.52E-08
               3        0.000      0.30491108737404E-01         0.830
               4        0.000      0.39955981712578E+00        10.873
               5        0.000      0.28259043504195E+01        76.897
 P
               1        6.000     -0.14182481541156E+01       -38.592               1.24E-08
               2        0.000     -0.20381990593673E-01        -0.555
               3        0.000      0.61122831684606E+00        16.632
               4        0.000      0.40294008516846E+01       109.646
 D
               1        5.000     -0.13719857998971E+00        -3.733               1.57E-08
               2        0.000      0.13138303481334E+00         3.575
               3        0.000      0.10915573963069E+01        29.703


 Partially Occupied:
               2 S                -0.15095063251582E+00
               1 D                -0.13719857998971E+00
  
 HOMO :        1 P                -0.14182481541156E+01
 LUMO :        2 P                -0.20381990593673E-01
  


 Orbital Energies, all Irreps
 ========================================

 Irrep        no.  (spin)   Occup              E (au)                E (eV)
 ---------------------------------------------------------------------------
 S             1             2.00       -0.23645412461087E+01       -64.3424
 P             1             6.00       -0.14182481541156E+01       -38.5925
 S             2             1.00       -0.15095063251582E+00        -4.1076
 D             1             5.00       -0.13719857998971E+00        -3.7334
 P             2             0.00       -0.20381990593673E-01        -0.5546
 S             3             0.00        0.30491108737404E-01         0.8297
 D             2             0.00        0.13138303481334E+00         3.5751
 S             4             0.00        0.39955981712578E+00        10.8726
 P             3             0.00        0.61122831684606E+00        16.6324
 D             3             0.00        0.10915573963069E+01        29.7028
 S             5             0.00        0.28259043504195E+01        76.8968
 P             4             0.00        0.40294008516846E+01       109.6456


 Scaled ZORA Orbital Energies of the Core Orbitals:
 ==================================================

 (Note that the atoms are grouped by atomtype, see the labels, and may hence NOT be in input order)

 AtomType  Orbital  Atom                   E (au)                        E (eV)
 --------  -------  ----           --------------------        ----------------
 Mo          1S        1          -0.72810156987753E+03              -19812.652
             2S        1          -0.10281078869890E+03               -2797.624
             3S        1          -0.17490063510859E+02                -475.929
             2P        1          -0.91890973277880E+02               -2500.481
             3P        1          -0.13936907885645E+02                -379.243
             3D        1          -0.81284558211672E+01                -221.187



 =======================================
 M U L L I K E N   P O P U L A T I O N S
 =======================================
  
 The survey below gives for each atom:
 a) the total charge (Z minus electrons)
 b) the net spin polarization (nr of electrons spin-A minus spin-B)
 c) for each spin the atomic electron valence density (integrated) per L-value.

 Atom              Charge    Spin density          S         P         D         F
 ----              ------    ------------       ------    ------    ------    ------
 1 Mo              0.0000                       3.0000    6.0000    5.0000    0.0000

 Populations of individual BAS functions
 ----------------------------------------
 1 Mo          -0.0051  0.0033 -0.0315  0.0008  0.0008  0.0008  0.0345  0.0345  0.0345  0.0153
                0.0230  0.0230  0.0153  0.0230  0.0153  1.3114  0.7310  0.3903  0.5032  0.0973
                0.7293  0.7293  0.7293  1.1024  1.1024  1.1024  0.1310  0.1310  0.1310  0.2744
                0.4116  0.4116  0.2744  0.4116  0.2744  0.3155  0.4732  0.4732  0.3155  0.4732
                0.3155  0.0615  0.0922  0.0922  0.0615  0.0922  0.0615  0.0019  0.0019  0.0019

 Gross Charges per Atom (Z minus electrons)
 ==========================================
             0.0000
 Net Total:  0.00000000



 =======================================================================
 Electrostatic potential at the Nuclei due to electrons and other nuclei
 =======================================================================
  
         Atom                  Potential
         ----                  ---------
     1)   Mo                232.78835403
 
 
 ========================
 No memory problems found
 ========================
 
 Maximum number of active allocate calls:         389
 
 *******************************************************************************

                             A D F   E X I T
 NORMAL TERMINATION



 =================
 Timing Statistics
 =================
  
 Total Used :                     CPU=        0.66      System=        0.03     Elapsed=        0.79

 Calls  Section                     ( Mean, Percentage )
 ---------------------------------------------------------------------------------------------------
     3  ><      ................      0.00    0.00             0.00    0.00             0.00    0.67
     1  INIT    ................      0.06    9.64             0.00   12.50             0.08    9.60
     1  GEOMET  ................      0.02    2.41             0.00   12.50             0.04    4.48
     1  INPUTA  ................      0.00    0.00             0.00   12.50             0.00    0.47
     1  MAINSY  ................      0.01    1.20             0.01   25.00             0.02    2.74
     1  SYMFIT  ................      0.00    0.60             0.00    0.00             0.00    0.20
     1  CORORT  ................      0.00    0.00             0.00    0.00             0.00    0.29
     1  SYMORB  ................      0.00    0.00             0.00    0.00             0.00    0.12
     1  CLSMAT  ................      0.00    0.60             0.00    0.00             0.01    0.74
     1  ORTHON  ................      0.00    0.60             0.00    0.00             0.01    0.74
     1  GENPT   ................      0.02    2.41             0.00   12.50             0.02    2.75
     1  PTBAS   ................      0.01    1.20             0.00    0.00             0.01    0.75
    13  FOCKY   ................      0.03   67.47             0.00   25.00             0.04   62.54
    13  FOCKTR  ................      0.00    1.81             0.00    0.00             0.00    1.03
    13  SDIIS   ................      0.00    4.22             0.00    0.00             0.00    5.40
     1  COREPS  ................      0.03    4.82             0.00    0.00             0.04    4.46
     1  POPAN   ................      0.01    1.20             0.00    0.00             0.01    0.69
     1  DEBYE   ................      0.00    0.00             0.00    0.00             0.00    0.32
     1  EXIT PROCEDURE .........      0.01    1.81             0.00    0.00             0.02    2.02


 Currently Open Files (EXIT00)
 ====================

 Unit    Access Format  Status   Type       Ident (file)
 -------------------------------------------------------
   3      SEQ    FORM   TRANSP  NORMAL      LOGFILE
                                          ( logfile )

 ***************************************************************************************************
 (LOGFILE)
 <Mar10-2023> <12:06:03>  DIRAC 2019  RunTime: Mar10-2023 12:06:03  Nodes: 1  Procs: 1
 <Mar10-2023> <12:06:03>  NORMAL TERMINATION
 <Mar10-2023> <12:06:03>  END
 <Mar10-2023> <12:06:03>  ADF 2019  RunTime: Mar10-2023 12:06:03  Nodes: 1  Procs: 1
 <Mar10-2023> <12:06:03>  Hydrogen (TZP)
 <Mar10-2023> <12:06:03>  RunType   : CREATE
 <Mar10-2023> <12:06:03>  Net Charge: 0 (Nuclei minus Electrons)
 <Mar10-2023> <12:06:03>  Symmetry  : ATOM
  Coordinates
    Atom         X           Y           Z   (Angstrom)
    1.H         0.000000    0.000000    0.000000
 <Mar10-2023> <12:06:03>  >>>> CORORT
 <Mar10-2023> <12:06:03>  >>>> CLSMAT
 <Mar10-2023> <12:06:03>  >>>> ORTHON
 <Mar10-2023> <12:06:03>  >>>> GENPT
 <Mar10-2023> <12:06:03>  Block Length=  64
 <Mar10-2023> <12:06:03>  >>>> PTBAS
 <Mar10-2023> <12:06:03>  >>>> CYCLE
 <Mar10-2023> <12:06:03>              |Error|         MaxErr       Wt(A-DIIS)
 <Mar10-2023> <12:06:03>      1      0.00000000      0.00000000
 <Mar10-2023> <12:06:03>      2      0.03153787      0.03011049
 <Mar10-2023> <12:06:03>      3      0.00861799      0.00834303    100.0
 <Mar10-2023> <12:06:03>      4      0.00173235      0.00171862      0.7
 <Mar10-2023> <12:06:03>      5      0.00004367      0.00003977      0.0
 <Mar10-2023> <12:06:03>      6      0.00000238      0.00000216      0.0
 <Mar10-2023> <12:06:03>      7      0.00000001      0.00000001      0.0
 <Mar10-2023> <12:06:03>  SCF converged
 <Mar10-2023> <12:06:03>      8      0.00000000      0.00000000      0.0
 <Mar10-2023> <12:06:03>  >>>> POPAN
 <Mar10-2023> <12:06:03>  >>>> DEBYE
 <Mar10-2023> <12:06:03>  NORMAL TERMINATION
 <Mar10-2023> <12:06:03>  END
 <Mar10-2023> <12:06:04>  DIRAC 2019  RunTime: Mar10-2023 12:06:04  Nodes: 1  Procs: 1
 <Mar10-2023> <12:06:04>  NORMAL TERMINATION
 <Mar10-2023> <12:06:04>  END
 <Mar10-2023> <12:06:04>  ADF 2019  RunTime: Mar10-2023 12:06:04  Nodes: 1  Procs: 1
 <Mar10-2023> <12:06:04>  Molybdenum (TZP, 3d frozen)
 <Mar10-2023> <12:06:04>  RunType   : CREATE
 <Mar10-2023> <12:06:04>  Net Charge: 0 (Nuclei minus Electrons)
 <Mar10-2023> <12:06:04>  Symmetry  : ATOM
  Coordinates
    Atom         X           Y           Z   (Angstrom)
    1.Mo        0.000000    0.000000    0.000000
 <Mar10-2023> <12:06:04>  >>>> CORORT
 <Mar10-2023> <12:06:04>  >>>> CLSMAT
 <Mar10-2023> <12:06:04>  >>>> ORTHON
 <Mar10-2023> <12:06:04>  >>>> GENPT
 <Mar10-2023> <12:06:04>  Block Length= 106
 <Mar10-2023> <12:06:04>  >>>> PTBAS
 <Mar10-2023> <12:06:04>  >>>> CYCLE
 <Mar10-2023> <12:06:04>              |Error|         MaxErr       Wt(A-DIIS)
 <Mar10-2023> <12:06:04>      1      0.00000000      0.00000000
 <Mar10-2023> <12:06:04>      2      7.14879069      2.36431496    100.0
 <Mar10-2023> <12:06:04>      3      4.21227824      1.56853098    100.0
 <Mar10-2023> <12:06:05>      4      1.82331032      0.62147007    100.0
 <Mar10-2023> <12:06:05>      5      1.05882822      0.36255337    100.0
 <Mar10-2023> <12:06:05>      6      0.38630237      0.12592649    100.0
 <Mar10-2023> <12:06:05>      7      0.28473462      0.09561243     95.6
 <Mar10-2023> <12:06:05>      8      0.07042704      0.02358176     22.8
 <Mar10-2023> <12:06:05>      9      0.02402163      0.00807014      7.1
 <Mar10-2023> <12:06:05>     10      0.00169154      0.00056938      0.0
 <Mar10-2023> <12:06:05>     11      0.00000082      0.00000027      0.0
 <Mar10-2023> <12:06:05>     12      0.00000002      0.00000001      0.0
 <Mar10-2023> <12:06:05>  SCF converged
 <Mar10-2023> <12:06:05>     13      0.00000000      0.00000000      0.0
 <Mar10-2023> <12:06:05>  >>>> POPAN
 <Mar10-2023> <12:06:05>  >>>> DEBYE
 <Mar10-2023> <12:06:05>  NORMAL TERMINATION
 <Mar10-2023> <12:06:05>  END

 *******************************************************************************
 *                                                                             *
 *  -------------------------------------                                      *
 *   Amsterdam Density Functional  (ADF)         2019                          *
 *  -------------------------------------                                      *
 *                                               r74351 2019-04-25             *
 *                                                                             *
 *                                                                             *
 *                            =====================                            *
 *                            |                   |                            *
 *                            |     D I R A C     |                            *
 *                            |                   |                            *
 *                            =====================                            *
 *                                                                             *
 *                                                                             *
 *   Online information and documentation:  https://www.scm.com/support/       *
 *   E-mail:  support@scm.com   info@scm.com                                   *
 *                                                                             *
 *   Scientific publications using ADF results must be properly referenced     *
 *   See the User Manuals (or the web site) for recommended citations          *
 *   The terms and conditions of the End User License Agreement apply to       *
 *   the use of ADF, https://www.scm.com/license-terms/                        *
 *                                                                             *
 **********************  x86_64_linux_intel / intelmpi  ************************
 
 Licensed to: Dr. Carles Bo / Institute of Chemical Research of Catalonia ( (ICIQ) / Tarragona / Spain 2022-11-28 14:37:29
 SCM User ID: u7609
  
 DIRAC 2019  RunTime: Mar10-2023 12:06:05  Nodes: 1  Procs: 1

 Temporary files are created in /scratch/kid_0.2104440299

1
 OXYGEN ATOM 1s CORE RELATIVISTIC, Point Nuc, A and c from li
 N J RN H ZN XION ANUC CLIGHT
 5000    4100.00000000197.36710137  8.00000000  0.00000000   15.994914  0.1370360E+03
  PH   PHI     EPS        DEL        DELRVR
  0.30  0.30     2500.00  0.00001000  0.00001000
 IDIRC  NC1  NDEBU NPRIN  IPUN IRCOR IWCOR
   1   300     0     0     0     0     1
   XALPHA      XLATTER      RNUC
  0.70000000  0.00000000  0.00000000 Point Charge
   XN   XL   XJ      XE          XZ      XDELL
  1.0  0.0  0.5      -5.000       2.000     0.00000
  2.0  0.0  0.5      -1.000       2.000     0.00000
  2.0  1.0  0.5      -1.000       2.000     0.00000
  2.0  1.0  1.5      -1.000       2.000     0.00000
 ICORP=  0  NPCL=  0  DEMP=0.00  PEPS=0.000000
 R(1)=  0.1000000E-08 D=  0.1005080E+01 RNUC=  0.0000000E+00
 converged at cycle   28  DENSITY AVERAGING    0.2400
  MAXIMUM ERROR IN R.V(R) IS   0.81125670E-05
 Q,EY,EV,EZ,ESUM,ETOT,RHO  0.800000E+01 -0.101247E+02 -0.114961E+03 -0.177573E+03 -0.405053E+02 -0.743427E+02  0.414766E-14


 DIRAC CALCULATION
1                    OXYGEN ATOM 1s CORE RELATIVISTIC, Point Nuc, A and c from libtc


 EXCHANGE COEFFICIENT=  0.7000000           TAIL CORRECTION=  0.           NUCLEAR RADIUS=  0.000E+00
0                       ORBITAL    N    L    J     ELECTRONS     EIGENVALUE                DELTA OF EIGENV.

                          1S1/2  1.0  0.0  0.5     2.000       -0.1880014E+02                 0.7264358E-06
                          2S1/2  2.0  0.0  0.5     2.000       -0.8412236E+00                 0.5932752E-05
                          2P1/2  2.0  1.0  0.5     2.000       -0.3063203E+00                 0.5998471E-05
                          2P3/2  2.0  1.0  1.5     2.000       -0.3049609E+00                 0.5986971E-05


                                        NUCLEAR CHARGE=    8.000000
                            INTEGRAL OF CHARGE DENSITY=    8.000000
                           SUM OF THE ORBITAL ENERGIES=    -40.5053
                                          TOTAL ENERGY=    -74.3427
                                        KINETIC ENERGY=     74.4552
                             NUCLEAR ATTRACTION ENERGY=   -177.5730
                             ELECTRON REPULSION ENERGY=     36.3686
                                       EXCHANGE ENERGY=     -7.5935

 *******************************************************************************

                             D I R A C   E X I T
 NORMAL TERMINATION



 =================
 Timing Statistics
 =================
  
 Total Used :                     CPU=        0.10      System=        0.00     Elapsed=        0.11

 Calls  Section                     ( Mean, Percentage )
 ---------------------------------------------------------------------------------------------------
     2  ><      ................      0.00    0.00             0.00    0.00             0.00    0.01
     1  EXIT PROCEDURE .........      0.10  100.00             0.00    0.00             0.11   99.99


 Currently Open Files (EXIT00)
 ====================

 Unit    Access Format  Status   Type       Ident (file)
 -------------------------------------------------------
   3      SEQ    FORM   TRANSP  NORMAL      LOGFILE
                                          ( logfile )
 
Create O   file=TZP-O.1s
XC
  GGA PBE
End
relativistic ZORA
Corepotentials t12.rel
End

 *******************************************************************************
 *                                                                             *
 *  -------------------------------------                                      *
 *   Amsterdam Density Functional  (ADF)         2019                          *
 *  -------------------------------------                                      *
 *                                               r74351 2019-04-25             *
 *                                                                             *
 *                                                                             *
 *                              =================                              *
 *                              |               |                              *
 *                              |     A D F     |                              *
 *                              |               |                              *
 *                              =================                              *
 *                                                                             *
 *                                                                             *
 *   Online information and documentation:  https://www.scm.com/support/       *
 *   E-mail:  support@scm.com   info@scm.com                                   *
 *                                                                             *
 *   Scientific publications using ADF results must be properly referenced     *
 *   See the User Manuals (or the web site) for recommended citations          *
 *   The terms and conditions of the End User License Agreement apply to       *
 *   the use of ADF, https://www.scm.com/license-terms/                        *
 *                                                                             *
 **********************  x86_64_linux_intel / intelmpi  ************************
 
 Licensed to: Dr. Carles Bo / Institute of Chemical Research of Catalonia ( (ICIQ) / Tarragona / Spain 2022-11-28 14:37:29
 SCM User ID: u7609
  
 ADF 2019  RunTime: Mar10-2023 12:06:05  Nodes: 1  Procs: 1

 Temporary files are created in /scratch/kid_0.784152648

 Oxygen (TZP, 1s frozen)



 ===========================
 A T T A C H E D   F I L E S
 ===========================
  
 CREATE - Data File:    TZP-O.1s
                        Oxygen (TZP, 1s frozen)
 Core Potentials:
         file : t12.rel



 ===============================
 M O D E L   P A R A M E T E R S
 ===============================
  
 DENSITY FUNCTIONAL POTENTIAL (scf)
    LDA:                               PW92                                    == Not Default ==
    Gradient Corrections:              PBEc PBEx                               == Not Default ==

 SPIN  (restricted / unrestr.)
    Molecule:                          Restricted                               

 OTHER ASPECTS
    Relativistic Corrections:          scalar (ZORA,MAPA)                      == Not Default ==

    Nuclear Charge Density Model:      Point Charge Nuclei                      
    Core Treatment:                    Frozen Orbital(s)                        

    Hyperfine or Zeeman Interaction:   ---                                      



 =====================================
 S Y M M E T R Y ,   E L E C T R O N S
 =====================================
  
 Symmetry: ATOM

 Irreducible Representations, including subspecies
 -------------------------------------------------
 S
 P:x  P:y  P:z
 D:z2  D:x2-y2  D:xy  D:xz  D:yz
 F:z3  F:z  F:xyz  F:z2x  F:z2y  F:x  F:y


 Configuration of Valence Electrons
 ==================================

          Occupation Numbers
          -------------------------------------------------
 S        2
 P        4
 D        0
 F        0
          -------------------------------------------------

 Total:   6

 Net Charge: 0 (Nuclei minus Electrons)

 Preset values for MO occupations will be applied through SCF cycle no. 1000000
 Thereafter, the program will assign electrons to MOs that are spatially
 similar to the occupied MOs in a "reference" cycle ("KeepOrbitals").
 The reference cycle is always the PREVIOUS cycle: it will evolve with
 the SCF procedure.



 ================================
 (Slater-type)  F U N C T I O N S  ***  (Basis and Fit)  ***
 ================================
  

 Atom Type    1  (O)
 ==============

 Valence Basis Sets:   8
 -----------------------
   1 S    7.360000
   2 S    1.720000
   2 S    2.880000
   2 S    7.580000
   2 P    1.120000
   2 P    2.080000
   2 P    4.080000
   3 D    2.000000

 Frozen Core Shells
 ------------------
    S:  1


 BAS: List of all Elementary Cartesian Basis Functions
 =====================================================

 The numbering in the list below (to the right of the function characteristics) is referred
 to in print-outs of MO eigenvectors and Mulliken populations in the BAS representation
 (as contrasted to the SFO representation).

 Notes:
 1. The functions are characterized by a polynomial prefactor (powers of x,y,z and r) and
    an exponential decay factor alpha.
 2. Since the basis sets are specific for an atom TYPE, the individual functions occur on
    all atoms of that type.
 3. The word 'Core' in the left margin signals that it is a Core Function (CF) : not a
    degree of freedom in the valence set, but only used to ensure orthogonalization of
    the other valence basis functions on the frozen Core Orbitals.


 (power of) X  Y  Z  R     Alpha  on Atom
            ==========     =====     ==========

 O                                    1
                                  ---------------------------------------------------------------------------
    Core    0  0  0  0     7.360      1
            0  0  0  1     1.720      2
            0  0  0  1     2.880      3
            0  0  0  1     7.580      4
            1  0  0  0     1.120      5
            0  1  0  0     1.120      6
            0  0  1  0     1.120      7
            1  0  0  0     2.080      8
            0  1  0  0     2.080      9
            0  0  1  0     2.080     10
            1  0  0  0     4.080     11
            0  1  0  0     4.080     12
            0  0  1  0     4.080     13
            2  0  0  0     2.000     14
            1  1  0  0     2.000     15
            1  0  1  0     2.000     16
            0  2  0  0     2.000     17
            0  1  1  0     2.000     18
            0  0  2  0     2.000     19

 Total number of charge fitting functions (nprimf)        82
 Total number of Cartesian basis functions (naos)         19
 Total number of Cartesian core functions  (ncos)          1



 BAS: List of all Elementary Cartesian Basis Functions
 =====================================================

 The numbering in the list below (to the right of the function characteristics) is referred
 to in print-outs of MO eigenvectors and Mulliken populations in the BAS representation
 (as contrasted to the SFO representation).

 Notes:
 1. The functions are characterized by a polynomial prefactor (powers of x,y,z and r) and
    an exponential decay factor alpha.
 2. Since the basis sets are specific for an atom TYPE, the individual functions occur on
    all atoms of that type.
 3. The word 'Core' in the left margin signals that it is a Core Function (CF) : not a
    degree of freedom in the valence set, but only used to ensure orthogonalization of
    the other valence basis functions on the frozen Core Orbitals.


 (power of) X  Y  Z  R     Alpha  on Atom
            ==========     =====     ==========

 O                                    1
                                  ---------------------------------------------------------------------------
    Core    0  0  0  0     7.360      1
            0  0  0  1     1.720      2
            0  0  0  1     2.880      3
            0  0  0  1     7.580      4
            1  0  0  0     1.120      5
            0  1  0  0     1.120      6
            0  0  1  0     1.120      7
            1  0  0  0     2.080      8
            0  1  0  0     2.080      9
            0  0  1  0     2.080     10
            1  0  0  0     4.080     11
[...]
 <Mar10-2023> <12:10:21>  cart. step max                      0.00748118     0.01000000    T
 <Mar10-2023> <12:10:21>  cart. step rms                      0.00423109     0.00666667    T
  Coordinates in Geometry Cycle 19
    Atom         X           Y           Z   (Angstrom)
    1.O        -0.089705    1.140874   -0.613414
    2.O        -2.396500   -0.464423    1.566803
    3.O        -2.666848    1.310562   -0.549297
    4.Mo        1.515069    0.205395   -0.129772
    5.O         2.201964   -0.171247   -1.722473
    6.Mo       -1.678113   -0.104461   -0.030951
    7.O         2.621987   -1.179341    0.966091
    8.O        -2.127979   -1.387498   -1.181628
    9.O         0.132491   -0.949521    0.601852
   10.O         2.396865    1.551488    0.632150
   11.H         3.511425   -0.782742    1.044526
 <Mar10-2023> <12:10:21>  >>>> CORORT
 <Mar10-2023> <12:10:21>  >>>> CLSMAT
 <Mar10-2023> <12:10:21>  >>>> ORTHON
 <Mar10-2023> <12:10:21>  >>>> GENPT
 <Mar10-2023> <12:10:21>  Block Length= 128
 <Mar10-2023> <12:10:21>  >>>> PTBAS
 <Mar10-2023> <12:10:21>  combining surface points...
 <Mar10-2023> <12:10:21>  combining surface points...
 <Mar10-2023> <12:10:21>  combining surface points...
 <Mar10-2023> <12:10:21>  >>>> CYCLE
 <Mar10-2023> <12:10:22>              |Error|         MaxErr       Wt(A-DIIS)
 <Mar10-2023> <12:10:22>      1      0.11464526      0.02406913
 <Mar10-2023> <12:10:23>      2      0.35248269      0.05397019    100.0
 <Mar10-2023> <12:10:24>      3      0.12961445      0.02434190    100.0
 <Mar10-2023> <12:10:24>      4      0.22728718      0.03108174    100.0
 <Mar10-2023> <12:10:25>      5      0.25015083      0.04217238    100.0
 <Mar10-2023> <12:10:25>      6      0.15303594      0.02767037    100.0
 <Mar10-2023> <12:10:26>      7      0.27912943      0.04446073    100.0
 <Mar10-2023> <12:10:27>      8      0.08565412      0.01782614     17.0
 <Mar10-2023> <12:10:27>      9      0.03135490      0.00459640      3.6
 <Mar10-2023> <12:10:28>     10      0.00604233      0.00107797      0.1
 <Mar10-2023> <12:10:28>     11      0.00155195      0.00026794      0.0
 <Mar10-2023> <12:10:29>     12      0.00078821      0.00015267      0.0
 <Mar10-2023> <12:10:30>     13      0.00024310      0.00004986      0.0
 <Mar10-2023> <12:10:30>     14      0.00010384      0.00001351      0.0
 <Mar10-2023> <12:10:31>     15      0.00005003      0.00001309      0.0
 <Mar10-2023> <12:10:31>     16      0.00001972      0.00000356      0.0
 <Mar10-2023> <12:10:32>     17      0.00000261      0.00000042      0.0
 <Mar10-2023> <12:10:32>  SCF converged
 <Mar10-2023> <12:10:32>     18      0.00000201      0.00000049      0.0
 <Mar10-2023> <12:10:32>  >>>> TOTEN
 <Mar10-2023> <12:10:33>  >>>> POPAN
 <Mar10-2023> <12:10:33>  >>>> DEBYE
 <Mar10-2023> <12:10:33>  >>>> ENGRAD
 <Mar10-2023> <12:10:34>  current energy                               -3.47340367 Hartree
 <Mar10-2023> <12:10:34>  energy change                      -0.00000478     0.00100000    T
 <Mar10-2023> <12:10:34>  constrained gradient max            0.00427450     0.00100000    F
 <Mar10-2023> <12:10:34>  constrained gradient rms            0.00123180     0.00066667    F
 <Mar10-2023> <12:10:34>  gradient max                        0.00427450
 <Mar10-2023> <12:10:34>  gradient rms                        0.00123180
 <Mar10-2023> <12:10:34>  cart. step max                      0.00871245     0.01000000    T
 <Mar10-2023> <12:10:34>  cart. step rms                      0.00422055     0.00666667    T
  Coordinates in Geometry Cycle 20
    Atom         X           Y           Z   (Angstrom)
    1.O        -0.092685    1.137814   -0.615150
    2.O        -2.387788   -0.467490    1.565996
    3.O        -2.671713    1.312921   -0.543152
    4.Mo        1.512770    0.200156   -0.129122
    5.O         2.196239   -0.179222   -1.723058
    6.Mo       -1.676529   -0.098133   -0.034512
    7.O         2.624281   -1.178250    0.967129
    8.O        -2.122036   -1.380642   -1.188910
    9.O         0.133380   -0.949963    0.605040
   10.O         2.392060    1.549867    0.630455
   11.H         3.512676   -0.777973    1.049171
 <Mar10-2023> <12:10:34>  >>>> CORORT
 <Mar10-2023> <12:10:34>  >>>> CLSMAT
 <Mar10-2023> <12:10:34>  >>>> ORTHON
 <Mar10-2023> <12:10:34>  >>>> GENPT
 <Mar10-2023> <12:10:34>  Block Length= 128
 <Mar10-2023> <12:10:34>  >>>> PTBAS
 <Mar10-2023> <12:10:35>  combining surface points...
 <Mar10-2023> <12:10:35>  combining surface points...
 <Mar10-2023> <12:10:35>  combining surface points...
 <Mar10-2023> <12:10:35>  >>>> CYCLE
 <Mar10-2023> <12:10:36>              |Error|         MaxErr       Wt(A-DIIS)
 <Mar10-2023> <12:10:36>      1      0.11527813      0.02398101
 <Mar10-2023> <12:10:36>      2      0.35385727      0.05451009    100.0
 <Mar10-2023> <12:10:37>      3      0.13046562      0.02441167    100.0
 <Mar10-2023> <12:10:37>      4      0.22924609      0.03182547    100.0
 <Mar10-2023> <12:10:38>      5      0.25436611      0.04287233    100.0
 <Mar10-2023> <12:10:39>      6      0.15101836      0.02729649    100.0
 <Mar10-2023> <12:10:39>      7      0.28013246      0.04569235    100.0
 <Mar10-2023> <12:10:40>      8      0.08799493      0.01829308     17.5
 <Mar10-2023> <12:10:40>      9      0.03344224      0.00462440      3.7
 <Mar10-2023> <12:10:41>     10      0.00610300      0.00103477      0.0
 <Mar10-2023> <12:10:42>     11      0.00161507      0.00028947      0.0
 <Mar10-2023> <12:10:42>     12      0.00084202      0.00016743      0.0
 <Mar10-2023> <12:10:43>     13      0.00024174      0.00004569      0.0
 <Mar10-2023> <12:10:43>     14      0.00009810      0.00001197      0.0
 <Mar10-2023> <12:10:44>     15      0.00004967      0.00001282      0.0
 <Mar10-2023> <12:10:44>     16      0.00002039      0.00000398      0.0
 <Mar10-2023> <12:10:45>     17      0.00000371      0.00000054      0.0
 <Mar10-2023> <12:10:45>  SCF converged
 <Mar10-2023> <12:10:45>     18      0.00000514      0.00000101      0.0
 <Mar10-2023> <12:10:46>  >>>> TOTEN
 <Mar10-2023> <12:10:46>  >>>> POPAN
 <Mar10-2023> <12:10:46>  >>>> DEBYE
 <Mar10-2023> <12:10:46>  >>>> ENGRAD
 <Mar10-2023> <12:10:47>  current energy                               -3.47339594 Hartree
 <Mar10-2023> <12:10:47>  energy change                       0.00000773     0.00100000    T
 <Mar10-2023> <12:10:47>  constrained gradient max            0.00126268     0.00100000    F
 <Mar10-2023> <12:10:47>  constrained gradient rms            0.00043756     0.00066667    T
 <Mar10-2023> <12:10:47>  gradient max                        0.00126268
 <Mar10-2023> <12:10:47>  gradient rms                        0.00043756
 <Mar10-2023> <12:10:47>  cart. step max                      0.00204467     0.01000000    T
 <Mar10-2023> <12:10:47>  cart. step rms                      0.00076684     0.00666667    T
  Coordinates in Geometry Cycle 21
    Atom         X           Y           Z   (Angstrom)
    1.O        -0.092702    1.138274   -0.613882
    2.O        -2.386313   -0.467290    1.566528
    3.O        -2.672947    1.312368   -0.543610
    4.Mo        1.512954    0.200488   -0.129032
    5.O         2.196214   -0.179309   -1.723044
    6.Mo       -1.676852   -0.097713   -0.035002
    7.O         2.622906   -1.177108    0.968365
    8.O        -2.121816   -1.380895   -1.189233
    9.O         0.133370   -0.950441    0.603969
   10.O         2.392362    1.550729    0.629876
   11.H         3.513481   -0.780018    1.048952
 <Mar10-2023> <12:10:47>  >>>> CORORT
 <Mar10-2023> <12:10:47>  >>>> CLSMAT
 <Mar10-2023> <12:10:47>  >>>> ORTHON
 <Mar10-2023> <12:10:47>  >>>> GENPT
 <Mar10-2023> <12:10:47>  Block Length= 128
 <Mar10-2023> <12:10:47>  >>>> PTBAS
 <Mar10-2023> <12:10:48>  combining surface points...
 <Mar10-2023> <12:10:48>  combining surface points...
 <Mar10-2023> <12:10:48>  combining surface points...
 <Mar10-2023> <12:10:48>  >>>> CYCLE
 <Mar10-2023> <12:10:49>              |Error|         MaxErr       Wt(A-DIIS)
 <Mar10-2023> <12:10:49>      1      0.11317144      0.02369081
 <Mar10-2023> <12:10:49>      2      0.35162159      0.05410589    100.0
 <Mar10-2023> <12:10:50>      3      0.13771680      0.02330076    100.0
 <Mar10-2023> <12:10:50>      4      0.27337063      0.03939000    100.0
 <Mar10-2023> <12:10:51>      5      0.17882741      0.02944626    100.0
 <Mar10-2023> <12:10:52>      6      0.17363961      0.03192219    100.0
 <Mar10-2023> <12:10:52>      7      0.21472000      0.02691274    100.0
 <Mar10-2023> <12:10:53>      8      0.02983533      0.00386806      2.9
 <Mar10-2023> <12:10:54>      9      0.01151916      0.00222618      1.2
 <Mar10-2023> <12:10:54>     10      0.00396743      0.00106294      0.1
 <Mar10-2023> <12:10:55>     11      0.00149587      0.00032759      0.0
 <Mar10-2023> <12:10:55>     12      0.00072071      0.00014435      0.0
 <Mar10-2023> <12:10:56>     13      0.00023459      0.00006415      0.0
 <Mar10-2023> <12:10:56>     14      0.00006092      0.00000987      0.0
 <Mar10-2023> <12:10:57>     15      0.00004227      0.00000769      0.0
 <Mar10-2023> <12:10:57>     16      0.00001842      0.00000448      0.0
 <Mar10-2023> <12:10:58>     17      0.00001909      0.00000310      0.0
 <Mar10-2023> <12:10:58>     18      0.00000571      0.00000085      0.0
 <Mar10-2023> <12:10:59>  SCF converged
 <Mar10-2023> <12:10:59>     19      0.00000769      0.00000102      0.0
 <Mar10-2023> <12:10:59>  >>>> TOTEN
 <Mar10-2023> <12:11:00>  >>>> POPAN
 <Mar10-2023> <12:11:00>  >>>> DEBYE
 <Mar10-2023> <12:11:00>  >>>> ENGRAD
 <Mar10-2023> <12:11:01>  current energy                               -3.47339964 Hartree
 <Mar10-2023> <12:11:01>  energy change                      -0.00000371     0.00100000    T
 <Mar10-2023> <12:11:01>  constrained gradient max            0.00097309     0.00100000    T
 <Mar10-2023> <12:11:01>  constrained gradient rms            0.00031632     0.00066667    T
 <Mar10-2023> <12:11:01>  gradient max                        0.00097309
 <Mar10-2023> <12:11:01>  gradient rms                        0.00031632
 <Mar10-2023> <12:11:01>  cart. step max                      0.00311360     0.01000000    T
 <Mar10-2023> <12:11:01>  cart. step rms                      0.00127714     0.00666667    T
 <Mar10-2023> <12:11:01>  GEOMETRY CONVERGED
 <Mar10-2023> <12:11:01>  Calculating Energy Terms for Final Geometry
  Coordinates in Geometry Cycle 21
    Atom         X           Y           Z   (Angstrom)
    1.O        -0.092702    1.138274   -0.613882
    2.O        -2.386313   -0.467290    1.566528
    3.O        -2.672947    1.312368   -0.543610
    4.Mo        1.512954    0.200488   -0.129032
    5.O         2.196214   -0.179309   -1.723044
    6.Mo       -1.676852   -0.097713   -0.035002
    7.O         2.622906   -1.177108    0.968365
    8.O        -2.121816   -1.380895   -1.189233
    9.O         0.133370   -0.950441    0.603969
   10.O         2.392362    1.550729    0.629876
   11.H         3.513481   -0.780018    1.048952
 <Mar10-2023> <12:11:01>  >>>> CORORT
 <Mar10-2023> <12:11:01>  >>>> CLSMAT
 <Mar10-2023> <12:11:01>  >>>> ORTHON
 <Mar10-2023> <12:11:01>  >>>> GENPT
 <Mar10-2023> <12:11:01>  Block Length= 128
 <Mar10-2023> <12:11:01>  >>>> PTBAS
 <Mar10-2023> <12:11:01>  combining surface points...
 <Mar10-2023> <12:11:01>  combining surface points...
 <Mar10-2023> <12:11:01>  combining surface points...
 <Mar10-2023> <12:11:01>  >>>> CYCLE
 <Mar10-2023> <12:11:02>              |Error|         MaxErr       Wt(A-DIIS)
 <Mar10-2023> <12:11:02>      1      0.11302121      0.04042651
 <Mar10-2023> <12:11:03>      2      0.35167213      0.06807936    100.0
 <Mar10-2023> <12:11:03>      3      0.13583674      0.04017881    100.0
 <Mar10-2023> <12:11:04>      4      0.26376203      0.03481935    100.0
 <Mar10-2023> <12:11:05>      5      0.19120261      0.03627022    100.0
 <Mar10-2023> <12:11:05>      6      0.16993594      0.03918920    100.0
 <Mar10-2023> <12:11:06>      7      0.22168693      0.03426237    100.0
 <Mar10-2023> <12:11:07>      8      0.03687366      0.00709318      6.2
 <Mar10-2023> <12:11:07>      9      0.01414746      0.00274569      1.8
 <Mar10-2023> <12:11:08>     10      0.00413650      0.00106680      0.1
 <Mar10-2023> <12:11:08>     11      0.00147718      0.00029934      0.0
 <Mar10-2023> <12:11:09>     12      0.00075636      0.00015147      0.0
 <Mar10-2023> <12:11:09>     13      0.00022449      0.00005464      0.0
 <Mar10-2023> <12:11:10>     14      0.00007118      0.00001677      0.0
 <Mar10-2023> <12:11:10>     15      0.00004921      0.00000957      0.0
 <Mar10-2023> <12:11:11>     16      0.00001665      0.00000298      0.0
 <Mar10-2023> <12:11:11>     17      0.00001907      0.00000308      0.0
 <Mar10-2023> <12:11:12>     18      0.00000299      0.00000053      0.0
 <Mar10-2023> <12:11:12>  SCF converged
 <Mar10-2023> <12:11:12>     19      0.00000552      0.00000086      0.0
 <Mar10-2023> <12:11:13>  >>>> TOTEN
 <Mar10-2023> <12:11:14>  QTAIM: determining topology...
 <Mar10-2023> <12:11:15>  >>>> POPAN
 <Mar10-2023> <12:11:15>  >>>> DEBYE
 <Mar10-2023> <12:11:15>  >>>> AMETS
 <Mar10-2023> <12:11:15>  >>>> POPUL
 <Mar10-2023> <12:11:15>   Bond Energy          -3.47339964 a.u.
 <Mar10-2023> <12:11:15>   Bond Energy         -94.51601333 eV
 <Mar10-2023> <12:11:15>   Bond Energy       -2179.59       kcal/mol
 <Mar10-2023> <12:11:15>  >>>> ENHESS
 <Mar10-2023> <12:11:15>  === NUCLEUS:     1
 <Mar10-2023> <12:11:46>  === NUCLEUS:     2
 <Mar10-2023> <12:12:14>  === NUCLEUS:     3
 <Mar10-2023> <12:12:44>  === NUCLEUS:     4
 <Mar10-2023> <12:13:14>  === NUCLEUS:     5
 <Mar10-2023> <12:13:43>  === NUCLEUS:     6
 <Mar10-2023> <12:14:12>  === NUCLEUS:     7
 <Mar10-2023> <12:14:41>  === NUCLEUS:     8
 <Mar10-2023> <12:15:10>  === NUCLEUS:     9
 <Mar10-2023> <12:15:41>  === NUCLEUS:    10
 <Mar10-2023> <12:16:11>  === NUCLEUS:    11
 <Mar10-2023> <12:16:40>  >>>> CALC_HESS_PMAT
 <Mar10-2023> <12:16:41>  >>>> CALC_HESS_WMAT
 <Mar10-2023> <12:16:43>  Symmetry  : NOSYM
 <Mar10-2023> <12:16:43>  >>>> FRAGM
 <Mar10-2023> <12:16:43>  Geometry symmetry displacement    1 out of    2
  Coordinates in Geometry Cycle 21
    Atom         X           Y           Z   (Angstrom)
    1.O        -0.092515    1.137818   -0.614903
    2.O        -2.386827   -0.468168    1.566260
    3.O        -2.672656    1.312778   -0.542758
    4.Mo        1.513008    0.200595   -0.129117
    5.O         2.196681   -0.179714   -1.722838
    6.Mo       -1.676875   -0.097807   -0.034898
    7.O         2.622530   -1.177225    0.968432
    8.O        -2.121775   -1.380469   -1.189714
    9.O         0.133123   -0.949682    0.604837
   10.O         2.392322    1.550968    0.629596
   11.H         3.513529   -0.780873    1.048061
 <Mar10-2023> <12:16:43>  >>>> CORORT
 <Mar10-2023> <12:16:43>  >>>> CLSMAT
 <Mar10-2023> <12:16:43>  >>>> ORTHON
 <Mar10-2023> <12:16:43>  >>>> GENPT
 <Mar10-2023> <12:16:43>  Block Length= 128
 <Mar10-2023> <12:16:43>  >>>> PTBAS
 <Mar10-2023> <12:16:43>  combining surface points...
 <Mar10-2023> <12:16:43>  combining surface points...
 <Mar10-2023> <12:16:43>  combining surface points...
 <Mar10-2023> <12:16:43>  >>>> CYCLE
 <Mar10-2023> <12:16:44>              |Error|         MaxErr       Wt(A-DIIS)
 <Mar10-2023> <12:16:44>      1      0.11304499      0.02375348
 <Mar10-2023> <12:16:45>      2      0.35161251      0.05419585    100.0
 <Mar10-2023> <12:16:45>      3      0.13592471      0.02347493    100.0
 <Mar10-2023> <12:16:46>      4      0.26419603      0.03787426    100.0
 <Mar10-2023> <12:16:47>      5      0.19071444      0.03174692    100.0
 <Mar10-2023> <12:16:47>      6      0.16979241      0.03113152    100.0
 <Mar10-2023> <12:16:48>      7      0.22173279      0.02727703    100.0
 <Mar10-2023> <12:16:48>      8      0.03661188      0.00563947      4.7
 <Mar10-2023> <12:16:49>      9      0.01292731      0.00257380      1.6
 <Mar10-2023> <12:16:50>     10      0.00410365      0.00109167      0.1
 <Mar10-2023> <12:16:50>     11      0.00150033      0.00031904      0.0
 <Mar10-2023> <12:16:51>     12      0.00074503      0.00015089      0.0
 <Mar10-2023> <12:16:51>     13      0.00023244      0.00006242      0.0
 <Mar10-2023> <12:16:52>     14      0.00006636      0.00001178      0.0
 <Mar10-2023> <12:16:52>     15      0.00004756      0.00000960      0.0
 <Mar10-2023> <12:16:53>     16      0.00001794      0.00000392      0.0
 <Mar10-2023> <12:16:53>     17      0.00001827      0.00000306      0.0
 <Mar10-2023> <12:16:54>     18      0.00000462      0.00000078      0.0
 <Mar10-2023> <12:16:54>  SCF converged
 <Mar10-2023> <12:16:54>     19      0.00000819      0.00000104      0.0
 <Mar10-2023> <12:16:55>  >>>> TOTEN
 <Mar10-2023> <12:16:55>  >>>> POPAN
 <Mar10-2023> <12:16:55>  >>>> DEBYE
 <Mar10-2023> <12:16:55>  >>>> ENGRAD
 <Mar10-2023> <12:16:56>  Geometry symmetry displacement    2 out of    2
  Coordinates in Geometry Cycle 21
    Atom         X           Y           Z   (Angstrom)
    1.O        -0.092889    1.138730   -0.612860
    2.O        -2.385799   -0.466412    1.566796
    3.O        -2.673238    1.311958   -0.544462
    4.Mo        1.512900    0.200381   -0.128946
    5.O         2.195747   -0.178904   -1.723250
    6.Mo       -1.676828   -0.097618   -0.035106
    7.O         2.623281   -1.176991    0.968298
    8.O        -2.121858   -1.381320   -1.188752
    9.O         0.133617   -0.951200    0.603101
   10.O         2.392403    1.550489    0.630155
   11.H         3.513433   -0.779162    1.049844
 <Mar10-2023> <12:16:56>  >>>> CORORT
 <Mar10-2023> <12:16:56>  >>>> CLSMAT
 <Mar10-2023> <12:16:56>  >>>> ORTHON
 <Mar10-2023> <12:16:56>  >>>> GENPT
 <Mar10-2023> <12:16:56>  Block Length= 128
 <Mar10-2023> <12:16:56>  >>>> PTBAS
 <Mar10-2023> <12:16:56>  combining surface points...
 <Mar10-2023> <12:16:56>  combining surface points...
 <Mar10-2023> <12:16:56>  combining surface points...
 <Mar10-2023> <12:16:56>  >>>> CYCLE
 <Mar10-2023> <12:16:57>              |Error|         MaxErr       Wt(A-DIIS)
 <Mar10-2023> <12:16:57>      1      0.11308159      0.02385566
 <Mar10-2023> <12:16:58>      2      0.35174990      0.05432328    100.0
 <Mar10-2023> <12:16:58>      3      0.13570702      0.02348891    100.0
 <Mar10-2023> <12:16:59>      4      0.26310735      0.03783544    100.0
 <Mar10-2023> <12:17:00>      5      0.19182945      0.03199644    100.0
 <Mar10-2023> <12:17:00>      6      0.17022090      0.03118149    100.0
 <Mar10-2023> <12:17:01>      7      0.22161834      0.02731959    100.0
 <Mar10-2023> <12:17:01>      8      0.03721267      0.00573222      4.8
 <Mar10-2023> <12:17:02>      9      0.01316416      0.00261236      1.6
 <Mar10-2023> <12:17:03>     10      0.00412086      0.00109564      0.1
 <Mar10-2023> <12:17:03>     11      0.00151263      0.00032125      0.0
 <Mar10-2023> <12:17:04>     12      0.00075983      0.00015499      0.0
 <Mar10-2023> <12:17:04>     13      0.00022922      0.00006108      0.0
 <Mar10-2023> <12:17:05>     14      0.00006825      0.00001222      0.0
 <Mar10-2023> <12:17:05>     15      0.00004754      0.00000958      0.0
 <Mar10-2023> <12:17:06>     16      0.00001828      0.00000392      0.0
 <Mar10-2023> <12:17:06>     17      0.00001825      0.00000302      0.0
 <Mar10-2023> <12:17:07>     18      0.00000436      0.00000076      0.0
 <Mar10-2023> <12:17:07>  SCF converged
 <Mar10-2023> <12:17:08>     19      0.00000789      0.00000100      0.0
 <Mar10-2023> <12:17:08>  >>>> TOTEN
 <Mar10-2023> <12:17:08>  >>>> POPAN
 <Mar10-2023> <12:17:08>  >>>> DEBYE
 <Mar10-2023> <12:17:08>  >>>> ENGRAD
 <Mar10-2023> <12:17:09>  Old frequency:    -55.46756, new:    -18.25825
 <Mar10-2023> <12:17:09>  NOTE: Some frequencies have been re-calculated by numerical differentiation
 <Mar10-2023> <12:17:09>        Check the text output file for new values!
 <Mar10-2023> <12:17:09>  NORMAL TERMINATION
 <Mar10-2023> <12:17:09>  END
