
 *******************************************************************************
 *                                                                             *
 *  -------------------------------------                                      *
 *   Amsterdam Density Functional  (ADF)         2019                          *
 *  -------------------------------------                                      *
 *                                               r74351 2019-04-25             *
 *                                                                             *
 *                                                                             *
 *                            =====================                            *
 *                            |                   |                            *
 *                            |     D I R A C     |                            *
 *                            |                   |                            *
 *                            =====================                            *
 *                                                                             *
 *                                                                             *
 *   Online information and documentation:  https://www.scm.com/support/       *
 *   E-mail:  support@scm.com   info@scm.com                                   *
 *                                                                             *
 *   Scientific publications using ADF results must be properly referenced     *
 *   See the User Manuals (or the web site) for recommended citations          *
 *   The terms and conditions of the End User License Agreement apply to       *
 *   the use of ADF, https://www.scm.com/license-terms/                        *
 *                                                                             *
 **********************  x86_64_linux_intel / intelmpi  ************************
 
 Licensed to: Dr. Carles Bo / Institute of Chemical Research of Catalonia ( (ICIQ) / Tarragona / Spain 2022-11-28 14:37:29
 SCM User ID: u7609
  
 DIRAC 2019  RunTime: Mar17-2023 18:37:42  Nodes: 1  Procs: 1

 Temporary files are created in /scratch/kid_0.1654548680

1
 HYDROGEN ATOM RELATIVISTIC, Point Nuc, A and c from libtc   
 N J RN H ZN XION ANUC CLIGHT
 5000    1100.00000000197.36710137  1.00000000  0.00000000    1.007825  0.1370360E+03
  PH   PHI     EPS        DEL        DELRVR
  0.30  0.30     2500.00  0.00001000  0.00001000
 IDIRC  NC1  NDEBU NPRIN  IPUN IRCOR IWCOR
   1   300     0     0     0     0     0
   XALPHA      XLATTER      RNUC
  0.70000000  0.00000000  0.00000000 Point Charge
   XN   XL   XJ      XE          XZ      XDELL
  1.0  0.0  0.5      -1.000       1.000     0.00000
 ICORP=  0  NPCL=  0  DEMP=0.00  PEPS=0.000000
 R(1)=  0.1000000E-08 D=  0.1005080E+01 RNUC=  0.0000000E+00
 converged at cycle   32  DENSITY AVERAGING    0.2400
  MAXIMUM ERROR IN R.V(R) IS   0.79874357E-05
 Q,EY,EV,EZ,ESUM,ETOT,RHO  0.100000E+01 -0.266614E+00 -0.619969E+00 -0.910779E+00 -0.203940E+00 -0.415998E+00  0.337036E-17


 DIRAC CALCULATION
1                    HYDROGEN ATOM RELATIVISTIC, Point Nuc, A and c from libtc


 EXCHANGE COEFFICIENT=  0.7000000           TAIL CORRECTION=  0.           NUCLEAR RADIUS=  0.000E+00
0                       ORBITAL    N    L    J     ELECTRONS     EIGENVALUE                DELTA OF EIGENV.

                          1S1/2  1.0  0.0  0.5     1.000       -0.2039397E+00                 0.2720093E-06


                                        NUCLEAR CHARGE=    1.000000
                            INTEGRAL OF CHARGE DENSITY=    1.000000
                           SUM OF THE ORBITAL ENERGIES=     -0.2039
                                          TOTAL ENERGY=     -0.4160
                                        KINETIC ENERGY=      0.4160
                             NUCLEAR ATTRACTION ENERGY=     -0.9108
                             ELECTRON REPULSION ENERGY=      0.2787
                                       EXCHANGE ENERGY=     -0.2000

 *******************************************************************************

                             D I R A C   E X I T
 NORMAL TERMINATION



 =================
 Timing Statistics
 =================
  
 Total Used :                     CPU=        0.05      System=        0.01     Elapsed=        0.07

 Calls  Section                     ( Mean, Percentage )
 ---------------------------------------------------------------------------------------------------
     2  ><      ................      0.00    0.00             0.00    0.00             0.00    0.01
     1  EXIT PROCEDURE .........      0.05  100.00             0.01  100.00             0.07   99.99


 Currently Open Files (EXIT00)
 ====================

 Unit    Access Format  Status   Type       Ident (file)
 -------------------------------------------------------
   3      SEQ    FORM   TRANSP  NORMAL      LOGFILE
                                          ( logfile )
 
Create H   file=TZP-H
XC
  GGA PBE
End
relativistic ZORA
Corepotentials t12.rel
End

 *******************************************************************************
 *                                                                             *
 *  -------------------------------------                                      *
 *   Amsterdam Density Functional  (ADF)         2019                          *
 *  -------------------------------------                                      *
 *                                               r74351 2019-04-25             *
 *                                                                             *
 *                                                                             *
 *                              =================                              *
 *                              |               |                              *
 *                              |     A D F     |                              *
 *                              |               |                              *
 *                              =================                              *
 *                                                                             *
 *                                                                             *
 *   Online information and documentation:  https://www.scm.com/support/       *
 *   E-mail:  support@scm.com   info@scm.com                                   *
 *                                                                             *
 *   Scientific publications using ADF results must be properly referenced     *
 *   See the User Manuals (or the web site) for recommended citations          *
 *   The terms and conditions of the End User License Agreement apply to       *
 *   the use of ADF, https://www.scm.com/license-terms/                        *
 *                                                                             *
 **********************  x86_64_linux_intel / intelmpi  ************************
 
 Licensed to: Dr. Carles Bo / Institute of Chemical Research of Catalonia ( (ICIQ) / Tarragona / Spain 2022-11-28 14:37:29
 SCM User ID: u7609
  
 ADF 2019  RunTime: Mar17-2023 18:37:42  Nodes: 1  Procs: 1

 Temporary files are created in /scratch/kid_0.117011365

 Hydrogen (TZP)



 ===========================
 A T T A C H E D   F I L E S
 ===========================
  
 CREATE - Data File:    TZP-H
                        Hydrogen (TZP)
 Core Potentials:
         file : t12.rel



 ===============================
 M O D E L   P A R A M E T E R S
 ===============================
  
 DENSITY FUNCTIONAL POTENTIAL (scf)
    LDA:                               PW92                                    == Not Default ==
    Gradient Corrections:              PBEc PBEx                               == Not Default ==

 SPIN  (restricted / unrestr.)
    Molecule:                          Restricted                               

 OTHER ASPECTS
    Relativistic Corrections:          scalar (ZORA,MAPA)                      == Not Default ==

    Nuclear Charge Density Model:      Point Charge Nuclei                      
    Core Treatment:                    Frozen Orbital(s)                        

    Hyperfine or Zeeman Interaction:   ---                                      



 =====================================
 S Y M M E T R Y ,   E L E C T R O N S
 =====================================
  
 Symmetry: ATOM

 Irreducible Representations, including subspecies
 -------------------------------------------------
 S
 P:x  P:y  P:z
 D:z2  D:x2-y2  D:xy  D:xz  D:yz
 F:z3  F:z  F:xyz  F:z2x  F:z2y  F:x  F:y


 Configuration of Valence Electrons
 ==================================

          Occupation Numbers
          -------------------------------------------------
 S        1
 P        0
 D        0
 F        0
          -------------------------------------------------

 Total:   1

 Net Charge: 0 (Nuclei minus Electrons)

 Preset values for MO occupations will be applied through SCF cycle no. 1000000
 Thereafter, the program will assign electrons to MOs that are spatially
 similar to the occupied MOs in a "reference" cycle ("KeepOrbitals").
 The reference cycle is always the PREVIOUS cycle: it will evolve with
 the SCF procedure.



 ================================
 (Slater-type)  F U N C T I O N S  ***  (Basis and Fit)  ***
 ================================
  

 Atom Type    1  (H)
 ==============

 Valence Basis Sets:   4
 -----------------------
   1 S    0.690000
   1 S    0.920000
   1 S    1.580000
   2 P    1.250000


 BAS: List of all Elementary Cartesian Basis Functions
 =====================================================

 The numbering in the list below (to the right of the function characteristics) is referred
 to in print-outs of MO eigenvectors and Mulliken populations in the BAS representation
 (as contrasted to the SFO representation).

 Notes:
 1. The functions are characterized by a polynomial prefactor (powers of x,y,z and r) and
    an exponential decay factor alpha.
 2. Since the basis sets are specific for an atom TYPE, the individual functions occur on
    all atoms of that type.
 3. The word 'Core' in the left margin signals that it is a Core Function (CF) : not a
    degree of freedom in the valence set, but only used to ensure orthogonalization of
    the other valence basis functions on the frozen Core Orbitals.


 (power of) X  Y  Z  R     Alpha  on Atom
            ==========     =====     ==========

 H                                    1
                                  ---------------------------------------------------------------------------
            0  0  0  0     0.690      1
            0  0  0  0     0.920      2
            0  0  0  0     1.580      3
            1  0  0  0     1.250      4
            0  1  0  0     1.250      5
            0  0  1  0     1.250      6

 Total number of charge fitting functions (nprimf)        50
 Total number of Cartesian basis functions (naos)          6
 Total number of Cartesian core functions  (ncos)          0



 BAS: List of all Elementary Cartesian Basis Functions
 =====================================================

 The numbering in the list below (to the right of the function characteristics) is referred
 to in print-outs of MO eigenvectors and Mulliken populations in the BAS representation
 (as contrasted to the SFO representation).

 Notes:
 1. The functions are characterized by a polynomial prefactor (powers of x,y,z and r) and
    an exponential decay factor alpha.
 2. Since the basis sets are specific for an atom TYPE, the individual functions occur on
    all atoms of that type.
 3. The word 'Core' in the left margin signals that it is a Core Function (CF) : not a
    degree of freedom in the valence set, but only used to ensure orthogonalization of
    the other valence basis functions on the frozen Core Orbitals.


 (power of) X  Y  Z  R     Alpha  on Atom
            ==========     =====     ==========

 H                                    1
                                  ---------------------------------------------------------------------------
            0  0  0  0     0.690      1
            0  0  0  0     0.920      2
            0  0  0  0     1.580      3
            1  0  0  0     1.250      4
            0  1  0  0     1.250      5
            0  0  1  0     1.250      6
1
 ***************************************************************************************************



                                              ***********************
                                              *  T E C H N I C A L  *
                                              ***********************
  



 =============================================================
 P A R A L L E L I Z A T I O N  and  V E C T O R I Z A T I O N
 =============================================================
  
 Nr of parallel processes:                                1
 Maximum vector length in NumInt loops:                 128



 =====================
 S C F   U P D A T E S
 =====================
  
 Max. nr. of cycles:                               300
 Convergence criterion:                              0.0000000100
   secondary criterion:                              0.0000000100

 Mix parameter (when DIIS does not apply):           0.2000000000
 Special mix parameter for the first cycle:          1.0000000000
 Mixed ADIIS+SDIIS will be used                  
    Max number of expansion vectors:                10
    Pure ADIIS when Max([F,P]) is above              0.1000000000
    Pure SDIIS when Max([F,P]) is below              0.0010000000
 Automatic ElectronSmearing (in case of problematic SCF convergence) disabled



 =================
 P R E C I S I O N  ***  (General: NumInt, NeglectFunctionTails, ...)  ***
 =================
  

 NumInt:           Target precision:                12.0000000000
 -------           Initial precision:               10.0000000000
                   Min. precision (optimization):   10.0000000000

 Neglect Functions:          Basis functions:        0.1000000000E-13
 ------------------          Fit functions:          0.1000000000E-13



 ===========================
 L I N E A R   S C A L I N G
 ===========================
  

 Cut-off radii density fit:                        0.1000000000E-97
 Overlap cut-off criterion AO matrix elements:     0.1000000000E-97
 Cut-offs for Coulomb potential and fitted density:0.1000000000E-97
 Cut-off criterion for Coulomb multipole terms:    0.1000000000E-97
 Progressive Convergence parameter:                 0.000000000    
1
 ***************************************************************************************************



                                            ***************************
                                            *  C O M P U T A T I O N  *
                                            ***************************
  

 Number of elements of the density matrix on this node (used, total):        21        21



 ===========================================
 Numerical Integration : Fuzzy Cells (Becke)
 ===========================================
  
 Becke grid quality: VERYGOOD       
  
 Lebedev angular grid order:             min:  13 max:  41
 Nr. of radial points:                   min:  64 max:  64

 Total nr. of points:         64
 Nr. of blocks:                1
 Block length:                64
 Nr. of dummy points:          0


 Test of Precision of the Numerical Integration Grid
 ===================================================

 Integral of the Total Core Density:                   0.00000000000000



 ========================
 Density Fitting (zlmFit)
 ========================
  
 ZlmFit Fit Quality: VERYGOOD       
  
 Max L-expansion:                        min:   0 max:   0
 Nr. of radial interpolation points:     min: 120 max: 120



 =====
 S C F  ***  ScaSCF  ***
 =====
  

 CYCLE    1
 SCF Error: norm([F,P])=      0.000000000000, max([F,P])=      0.000000000000
 orbitals (Q,E):
 ---------------
 S :1...3            ( 1.00    -0.5000)  ( 0.00    -0.0900)  ( 0.00     1.2936)
 P :1...1            ( 0.00     0.1562)

 CYCLE    2
 SCF Error: norm([F,P])=      0.031537872292, max([F,P])=      0.030110494752
 orbitals (Q,E):
 ---------------
 S :1...2            ( 1.00    -0.2218)  ( 0.00     0.1019)
 P :1...1            ( 0.00     0.4189)

 CYCLE    3
  SDIIS (wt  0.000):  0.1996  0.8004
 A-DIIS (wt  1.000):  0.0000  1.0000
  DIIS coefficients:  0.0000  1.0000
 SCF Error: norm([F,P])=      0.008617989401, max([F,P])=      0.008343029399
 orbitals (Q,E):
 ---------------
 S :1...2            ( 1.00    -0.2422)  ( 0.00     0.0889)
 P :1...1            ( 0.00     0.4024)

 CYCLE    4
  SDIIS (wt  0.993):  0.1666  0.8334
 A-DIIS (wt  0.007):  0.0000  1.0000
  DIIS coefficients:  0.1654  0.8346
 SCF Error: norm([F,P])=      0.001732350026, max([F,P])=      0.001718616814
 orbitals (Q,E):
 ---------------
 S :1...2            ( 1.00    -0.2385)  ( 0.00     0.0908)
 P :1...1            ( 0.00     0.4054)

 CYCLE    5
  SDIIS (wt  1.000):  0.0236  0.9764
  DIIS coefficients:  0.0236  0.9764
 SCF Error: norm([F,P])=      0.000043673449, max([F,P])=      0.000039769875
 orbitals (Q,E):
 ---------------
 S :1...2            ( 1.00    -0.2386)  ( 0.00     0.0908)
 P :1...1            ( 0.00     0.4054)

 CYCLE    6
  SDIIS (wt  1.000): -0.0577  1.0577
  DIIS coefficients: -0.0577  1.0577
 SCF Error: norm([F,P])=      0.000002383805, max([F,P])=      0.000002158128
 orbitals (Q,E):
 ---------------
 S :1...2            ( 1.00    -0.2386)  ( 0.00     0.0908)
 P :1...1            ( 0.00     0.4054)

 CYCLE    7
  SDIIS (wt  1.000): -0.0032  1.0032
  DIIS coefficients: -0.0032  1.0032
 SCF Error: norm([F,P])=      0.000000007721, max([F,P])=      0.000000007228
 orbitals (Q,E):
 ---------------
 S :1...2            ( 1.00    -0.2386)  ( 0.00     0.0908)
 P :1...1            ( 0.00     0.4054)

 SCF CONVERGED

 CYCLE    8
1
 ***************************************************************************************************



                                                *******************
                                                *  R E S U L T S  *
                                                *******************
  
 *** Using FIT density in Focky
  SDIIS (wt  1.000):  0.0192  0.9808
  DIIS coefficients:  0.0192  0.9808
 SCF Error: norm([F,P])=      0.000000000151, max([F,P])=      0.000000000141

 Scaled ZORA Orbital Energies, per Irrep and Spin:
 =================================================
                        Occup              E (au)              E (eV)       Diff (eV) with prev. cycle
                        -----      --------------------        ------       --------------------------
 S
               1        1.000     -0.23861775226993E+00        -6.493               7.43E-09
               2        0.000      0.90791701709251E-01         2.471
               3        0.000      0.15217530108908E+01        41.409
 P
               1        0.000      0.40537978060393E+00        11.031


 Partially Occupied:
               1 S                -0.23861775226993E+00
  
 LUMO :        2 S                 0.90791701709251E-01
  


 Orbital Energies, all Irreps
 ========================================

 Irrep        no.  (spin)   Occup              E (au)                E (eV)
 ---------------------------------------------------------------------------
 S             1             1.00       -0.23861775226993E+00        -6.4931
 S             2             0.00        0.90791701709251E-01         2.4706
 P             1             0.00        0.40537978060393E+00        11.0309
 S             3             0.00        0.15217530108908E+01        41.4090


 All Electron Calculation, thus no Orbital Energies of the Core Orbitals are calculated



 =======================================
 M U L L I K E N   P O P U L A T I O N S
 =======================================
  
 The survey below gives for each atom:
 a) the total charge (Z minus electrons)
 b) the net spin polarization (nr of electrons spin-A minus spin-B)
 c) for each spin the atomic electron valence density (integrated) per L-value.

 Atom              Charge    Spin density          S         P         D         F
 ----              ------    ------------       ------    ------    ------    ------
 1 H              -0.0000                       1.0000    0.0000    0.0000    0.0000

 Populations of individual BAS functions
 ----------------------------------------
 1 H            0.2104  0.6788  0.1107  0.0000  0.0000  0.0000

 Gross Charges per Atom (Z minus electrons)
 ==========================================
            -0.0000
 Net Total: -0.00000000



 =======================================================================
 Electrostatic potential at the Nuclei due to electrons and other nuclei
 =======================================================================
  
         Atom                  Potential
         ----                  ---------
     1)   H                   0.94468022
 
 
 ========================
 No memory problems found
 ========================
 
 Maximum number of active allocate calls:         306
 
 *******************************************************************************

                             A D F   E X I T
 NORMAL TERMINATION



 =================
 Timing Statistics
 =================
  
 Total Used :                     CPU=        0.32      System=        0.02     Elapsed=        0.37

 Calls  Section                     ( Mean, Percentage )
 ---------------------------------------------------------------------------------------------------
     3  ><      ................      0.00    1.23             0.00    0.00             0.00    1.16
     1  INIT    ................      0.07   20.99             0.00    0.00             0.07   19.95
     1  GEOMET  ................      0.02    6.17             0.00    0.00             0.02    6.34
     1  INPUTA  ................      0.00    0.00             0.00    0.00             0.00    0.89
     1  MAINSY  ................      0.00    1.23             0.01   40.00             0.01    3.45
     1  SYMFIT  ................      0.00    0.00             0.00    0.00             0.00    0.43
     1  CORORT  ................      0.00    0.00             0.00    0.00             0.00    0.33
     1  SYMORB  ................      0.00    1.23             0.00    0.00             0.00    0.18
     1  CLSMAT  ................      0.00    1.23             0.00    0.00             0.00    1.30
     1  ORTHON  ................      0.00    1.23             0.00    0.00             0.00    1.27
     1  GENPT   ................      0.01    2.47             0.00    0.00             0.01    3.17
     1  PTBAS   ................      0.01    2.47             0.00    0.00             0.00    1.26
     8  FOCKY   ................      0.02   49.38             0.00   20.00             0.02   44.88
     8  FOCKTR  ................      0.00    2.47             0.00    0.00             0.00    1.09
     8  SDIIS   ................      0.00    2.47             0.00    0.00             0.00    5.53
     1  COREPS  ................      0.01    3.70             0.00    0.00             0.01    3.68
     1  POPAN   ................      0.00    1.23             0.00    0.00             0.00    1.16
     1  DEBYE   ................      0.00    0.00             0.00   20.00             0.00    0.49
     1  EXIT PROCEDURE .........      0.01    2.47             0.00   20.00             0.01    3.43


 Currently Open Files (EXIT00)
 ====================

 Unit    Access Format  Status   Type       Ident (file)
 -------------------------------------------------------
   3      SEQ    FORM   TRANSP  NORMAL      LOGFILE
                                          ( logfile )

 ***************************************************************************************************
 (LOGFILE)
 <Mar17-2023> <18:37:42>  DIRAC 2019  RunTime: Mar17-2023 18:37:42  Nodes: 1  Procs: 1
 <Mar17-2023> <18:37:42>  NORMAL TERMINATION
 <Mar17-2023> <18:37:42>  END
 <Mar17-2023> <18:37:42>  ADF 2019  RunTime: Mar17-2023 18:37:42  Nodes: 1  Procs: 1
 <Mar17-2023> <18:37:42>  Hydrogen (TZP)
 <Mar17-2023> <18:37:42>  RunType   : CREATE
 <Mar17-2023> <18:37:42>  Net Charge: 0 (Nuclei minus Electrons)
 <Mar17-2023> <18:37:42>  Symmetry  : ATOM
  Coordinates
    Atom         X           Y           Z   (Angstrom)
    1.H         0.000000    0.000000    0.000000
 <Mar17-2023> <18:37:42>  >>>> CORORT
 <Mar17-2023> <18:37:42>  >>>> CLSMAT
 <Mar17-2023> <18:37:42>  >>>> ORTHON
 <Mar17-2023> <18:37:42>  >>>> GENPT
 <Mar17-2023> <18:37:42>  Block Length=  64
 <Mar17-2023> <18:37:42>  >>>> PTBAS
 <Mar17-2023> <18:37:42>  >>>> CYCLE
 <Mar17-2023> <18:37:42>              |Error|         MaxErr       Wt(A-DIIS)
 <Mar17-2023> <18:37:42>      1      0.00000000      0.00000000
 <Mar17-2023> <18:37:42>      2      0.03153787      0.03011049
 <Mar17-2023> <18:37:42>      3      0.00861799      0.00834303    100.0
 <Mar17-2023> <18:37:42>      4      0.00173235      0.00171862      0.7
 <Mar17-2023> <18:37:42>      5      0.00004367      0.00003977      0.0
 <Mar17-2023> <18:37:42>      6      0.00000238      0.00000216      0.0
 <Mar17-2023> <18:37:42>      7      0.00000001      0.00000001      0.0
 <Mar17-2023> <18:37:42>  SCF converged
 <Mar17-2023> <18:37:42>      8      0.00000000      0.00000000      0.0
 <Mar17-2023> <18:37:42>  >>>> POPAN
 <Mar17-2023> <18:37:42>  >>>> DEBYE
 <Mar17-2023> <18:37:42>  NORMAL TERMINATION
 <Mar17-2023> <18:37:42>  END

 *******************************************************************************
 *                                                                             *
 *  -------------------------------------                                      *
 *   Amsterdam Density Functional  (ADF)         2019                          *
 *  -------------------------------------                                      *
 *                                               r74351 2019-04-25             *
 *                                                                             *
 *                                                                             *
 *                            =====================                            *
 *                            |                   |                            *
 *                            |     D I R A C     |                            *
 *                            |                   |                            *
 *                            =====================                            *
 *                                                                             *
 *                                                                             *
 *   Online information and documentation:  https://www.scm.com/support/       *
 *   E-mail:  support@scm.com   info@scm.com                                   *
 *                                                                             *
 *   Scientific publications using ADF results must be properly referenced     *
 *   See the User Manuals (or the web site) for recommended citations          *
 *   The terms and conditions of the End User License Agreement apply to       *
 *   the use of ADF, https://www.scm.com/license-terms/                        *
 *                                                                             *
 **********************  x86_64_linux_intel / intelmpi  ************************
 
 Licensed to: Dr. Carles Bo / Institute of Chemical Research of Catalonia ( (ICIQ) / Tarragona / Spain 2022-11-28 14:37:29
 SCM User ID: u7609
  
 DIRAC 2019  RunTime: Mar17-2023 18:37:42  Nodes: 1  Procs: 1

 Temporary files are created in /scratch/kid_0.11426880

1
 MOLYBDENUM ATOM 3d CORE RELATIVISTIC, Point Nuc, A and c fro
 N J RN H ZN XION ANUC CLIGHT
 5000   15100.00000000197.36710137 42.00000000  0.00000000   97.905406  0.1370360E+03
  PH   PHI     EPS        DEL        DELRVR
  0.30  0.30     2500.00  0.00001000  0.00001000
 IDIRC  NC1  NDEBU NPRIN  IPUN IRCOR IWCOR
   1   300     0     0     0     0     9
   XALPHA      XLATTER      RNUC
  0.70000000  0.00000000  0.00000000 Point Charge
   XN   XL   XJ      XE          XZ      XDELL
  1.0  0.0  0.5   -1500.000       2.000     0.00000
  2.0  0.0  0.5    -325.000       2.000     0.00000
  2.0  1.0  0.5    -325.000       2.000     0.00000
  2.0  1.0  1.5    -325.000       4.000     0.00000
  3.0  0.0  0.5     -70.000       2.000     0.00000
  3.0  1.0  0.5     -70.000       2.000     0.00000
  3.0  1.0  1.5     -70.000       4.000     0.00000
  3.0  2.0  1.5     -60.000       4.000     0.00000
  3.0  2.0  2.5     -60.000       6.000     0.00000
  4.0  0.0  0.5     -10.000       2.000     0.00000
  4.0  1.0  0.5     -10.000       2.000     0.00000
  4.0  1.0  1.5     -10.000       4.000     0.00000
  4.0  2.0  1.5      -1.000       4.000     0.00000
  4.0  2.0  2.5      -1.000       1.000     0.00000
  5.0  0.0  0.5      -0.500       1.000     0.00000
 ICORP=  0  NPCL=  0  DEMP=0.00  PEPS=0.000000
 R(1)=  0.1000000E-08 D=  0.1005080E+01 RNUC=  0.0000000E+00
 converged at cycle   41  DENSITY AVERAGING    0.2400
  MAXIMUM ERROR IN R.V(R) IS   0.93203452E-05
 Q,EY,EV,EZ,ESUM,ETOT,RHO  0.420000E+02 -0.161898E+03 -0.662509E+04 -0.978397E+04 -0.242700E+04 -0.404691E+04  0.342495E-11


 DIRAC CALCULATION
1                    MOLYBDENUM ATOM 3d CORE RELATIVISTIC, Point Nuc, A and c from libtc


 EXCHANGE COEFFICIENT=  0.7000000           TAIL CORRECTION=  0.           NUCLEAR RADIUS=  0.000E+00
0                       ORBITAL    N    L    J     ELECTRONS     EIGENVALUE                DELTA OF EIGENV.

                          1S1/2  1.0  0.0  0.5     2.000       -0.7276812E+03                 0.2822496E-04
                          2S1/2  2.0  0.0  0.5     2.000       -0.1028194E+03                 0.1725465E-04
                          2P1/2  2.0  1.0  0.5     2.000       -0.9468016E+02                 0.1864325E-04
                          2P3/2  2.0  1.0  1.5     4.000       -0.9076266E+02                 0.1832345E-04
                          3S1/2  3.0  0.0  0.5     2.000       -0.1747094E+02                 0.5979346E-05
                          3P1/2  3.0  1.0  0.5     2.000       -0.1436574E+02                 0.6275079E-05
                          3P3/2  3.0  1.0  1.5     4.000       -0.1371946E+02                 0.5984426E-05
                          3D3/2  3.0  2.0  1.5     4.000       -0.8203697E+01                 0.6709395E-05
                          3D5/2  3.0  2.0  2.5     6.000       -0.8081013E+01                 0.6610438E-05
                          4S1/2  4.0  0.0  0.5     2.000       -0.2338238E+01                 0.2446887E-06
                          4P1/2  4.0  1.0  0.5     2.000       -0.1452045E+01                 0.2971982E-06
                          4P3/2  4.0  1.0  1.5     4.000       -0.1358936E+01                 0.3186552E-06
                          4D3/2  4.0  2.0  1.5     4.000       -0.1184046E+00                 0.3378248E-06
                          4D5/2  4.0  2.0  2.5     1.000       -0.1108976E+00                 0.3342679E-06
                          5S1/2  5.0  0.0  0.5     1.000       -0.1320069E+00                 0.9757102E-07


                                        NUCLEAR CHARGE=   42.000000
                            INTEGRAL OF CHARGE DENSITY=   42.000000
                           SUM OF THE ORBITAL ENERGIES=  -2426.9970
                                          TOTAL ENERGY=  -4046.9128
                                        KINETIC ENERGY=   4198.0886
                             NUCLEAR ATTRACTION ENERGY=  -9783.9685
                             ELECTRON REPULSION ENERGY=   1660.3903
                                       EXCHANGE ENERGY=   -121.4232

 *******************************************************************************

                             D I R A C   E X I T
 NORMAL TERMINATION



 =================
 Timing Statistics
 =================
  
 Total Used :                     CPU=        0.36      System=        0.01     Elapsed=        0.37

 Calls  Section                     ( Mean, Percentage )
 ---------------------------------------------------------------------------------------------------
     2  ><      ................      0.00    0.00             0.00    0.00             0.00    0.00
     1  EXIT PROCEDURE .........      0.36  100.00             0.01  100.00             0.37  100.00


 Currently Open Files (EXIT00)
 ====================

 Unit    Access Format  Status   Type       Ident (file)
 -------------------------------------------------------
   3      SEQ    FORM   TRANSP  NORMAL      LOGFILE
                                          ( logfile )
 
Create Mo   file=TZP-Mo.3d
XC
  GGA PBE
End
relativistic ZORA
Corepotentials t12.rel
End

 *******************************************************************************
 *                                                                             *
 *  -------------------------------------                                      *
 *   Amsterdam Density Functional  (ADF)         2019                          *
 *  -------------------------------------                                      *
 *                                               r74351 2019-04-25             *
 *                                                                             *
 *                                                                             *
 *                              =================                              *
 *                              |               |                              *
 *                              |     A D F     |                              *
 *                              |               |                              *
 *                              =================                              *
 *                                                                             *
 *                                                                             *
 *   Online information and documentation:  https://www.scm.com/support/       *
 *   E-mail:  support@scm.com   info@scm.com                                   *
 *                                                                             *
 *   Scientific publications using ADF results must be properly referenced     *
 *   See the User Manuals (or the web site) for recommended citations          *
 *   The terms and conditions of the End User License Agreement apply to       *
 *   the use of ADF, https://www.scm.com/license-terms/                        *
 *                                                                             *
 **********************  x86_64_linux_intel / intelmpi  ************************
 
 Licensed to: Dr. Carles Bo / Institute of Chemical Research of Catalonia ( (ICIQ) / Tarragona / Spain 2022-11-28 14:37:29
 SCM User ID: u7609
  
 ADF 2019  RunTime: Mar17-2023 18:37:43  Nodes: 1  Procs: 1

 Temporary files are created in /scratch/kid_0.319032125

 Molybdenum (TZP, 3d frozen)



 ===========================
 A T T A C H E D   F I L E S
 ===========================
  
 CREATE - Data File:    TZP-Mo.3d
                        Molybdenum (TZP, 3d frozen)
 Core Potentials:
         file : t12.rel



 ===============================
 M O D E L   P A R A M E T E R S
 ===============================
  
 DENSITY FUNCTIONAL POTENTIAL (scf)
    LDA:                               PW92                                    == Not Default ==
    Gradient Corrections:              PBEc PBEx                               == Not Default ==

 SPIN  (restricted / unrestr.)
    Molecule:                          Restricted                               

 OTHER ASPECTS
    Relativistic Corrections:          scalar (ZORA,MAPA)                      == Not Default ==

    Nuclear Charge Density Model:      Point Charge Nuclei                      
    Core Treatment:                    Frozen Orbital(s)                        

    Hyperfine or Zeeman Interaction:   ---                                      



 =====================================
 S Y M M E T R Y ,   E L E C T R O N S
 =====================================
  
 Symmetry: ATOM

 Irreducible Representations, including subspecies
 -------------------------------------------------
 S
 P:x  P:y  P:z
 D:z2  D:x2-y2  D:xy  D:xz  D:yz
 F:z3  F:z  F:xyz  F:z2x  F:z2y  F:x  F:y


 Configuration of Valence Electrons
 ==================================

          Occupation Numbers
          -------------------------------------------------
 S        2 1
 P        6
 D        5
 F        0
          -------------------------------------------------

 Total:   14

 Net Charge: 0 (Nuclei minus Electrons)

 Preset values for MO occupations will be applied through SCF cycle no. 1000000
 Thereafter, the program will assign electrons to MOs that are spatially
 similar to the occupied MOs in a "reference" cycle ("KeepOrbitals").
 The reference cycle is always the PREVIOUS cycle: it will evolve with
 the SCF procedure.



 ================================
 (Slater-type)  F U N C T I O N S  ***  (Basis and Fit)  ***
 ================================
  

 Atom Type    1  (Mo)
 ==============

 Valence Basis Sets:  18
 -----------------------
   1 S   30.500000
   2 S   17.750000
   3 S    8.350000
   2 P   18.600000
   3 P    8.700000
   3 D   10.050000
   4 S    5.100000
   4 S    3.300000
   5 S    2.150000
   5 S    1.350000
   5 S    0.870000
   4 P    4.950000
   4 P    3.300000
   4 P    2.300000
   4 D    3.500000
   4 D    1.850000
   4 D    0.970000
   5 P    1.350000

 Frozen Core Shells
 ------------------
    S:  3
    P:  2
    D:  1


 BAS: List of all Elementary Cartesian Basis Functions
 =====================================================

 The numbering in the list below (to the right of the function characteristics) is referred
 to in print-outs of MO eigenvectors and Mulliken populations in the BAS representation
 (as contrasted to the SFO representation).

 Notes:
 1. The functions are characterized by a polynomial prefactor (powers of x,y,z and r) and
    an exponential decay factor alpha.
 2. Since the basis sets are specific for an atom TYPE, the individual functions occur on
    all atoms of that type.
 3. The word 'Core' in the left margin signals that it is a Core Function (CF) : not a
    degree of freedom in the valence set, but only used to ensure orthogonalization of
    the other valence basis functions on the frozen Core Orbitals.


 (power of) X  Y  Z  R     Alpha  on Atom
            ==========     =====     ==========

 Mo                                   1
                                  ---------------------------------------------------------------------------
    Core    0  0  0  0    30.500      1
    Core    0  0  0  1    17.750      2
    Core    0  0  0  2     8.350      3
    Core    1  0  0  0    18.600      4
    Core    0  1  0  0    18.600      5
    Core    0  0  1  0    18.600      6
    Core    1  0  0  1     8.700      7
    Core    0  1  0  1     8.700      8
    Core    0  0  1  1     8.700      9
    Core    2  0  0  0    10.050     10
    Core    1  1  0  0    10.050     11
    Core    1  0  1  0    10.050     12
    Core    0  2  0  0    10.050     13
    Core    0  1  1  0    10.050     14
    Core    0  0  2  0    10.050     15
            0  0  0  3     5.100     16
            0  0  0  3     3.300     17
            0  0  0  4     2.150     18
            0  0  0  4     1.350     19
            0  0  0  4     0.870     20
            1  0  0  2     4.950     21
            0  1  0  2     4.950     22
            0  0  1  2     4.950     23
            1  0  0  2     3.300     24
            0  1  0  2     3.300     25
            0  0  1  2     3.300     26
            1  0  0  2     2.300     27
            0  1  0  2     2.300     28
            0  0  1  2     2.300     29
            2  0  0  1     3.500     30
            1  1  0  1     3.500     31
            1  0  1  1     3.500     32
            0  2  0  1     3.500     33
            0  1  1  1     3.500     34
            0  0  2  1     3.500     35
            2  0  0  1     1.850     36
            1  1  0  1     1.850     37
            1  0  1  1     1.850     38
            0  2  0  1     1.850     39
            0  1  1  1     1.850     40
            0  0  2  1     1.850     41
            2  0  0  1     0.970     42
            1  1  0  1     0.970     43
            1  0  1  1     0.970     44
            0  2  0  1     0.970     45
            0  1  1  1     0.970     46
            0  0  2  1     0.970     47
            1  0  0  3     1.350     48
            0  1  0  3     1.350     49
            0  0  1  3     1.350     50

 Total number of charge fitting functions (nprimf)       230
 Total number of Cartesian basis functions (naos)         50
 Total number of Cartesian core functions  (ncos)         15



 BAS: List of all Elementary Cartesian Basis Functions
 =====================================================

 The numbering in the list below (to the right of the function characteristics) is referred
 to in print-outs of MO eigenvectors and Mulliken populations in the BAS representation
 (as contrasted to the SFO representation).

 Notes:
 1. The functions are characterized by a polynomial prefactor (powers of x,y,z and r) and
    an exponential decay factor alpha.
 2. Since the basis sets are specific for an atom TYPE, the individual functions occur on
    all atoms of that type.
 3. The word 'Core' in the left margin signals that it is a Core Function (CF) : not a
    degree of freedom in the valence set, but only used to ensure orthogonalization of
    the other valence basis functions on the frozen Core Orbitals.


 (power of) X  Y  Z  R     Alpha  on Atom
            ==========     =====     ==========

 Mo                                   1
                                  ---------------------------------------------------------------------------
    Core    0  0  0  0    30.500      1
    Core    0  0  0  1    17.750      2
    Core    0  0  0  2     8.350      3
    Core    1  0  0  0    18.600      4
    Core    0  1  0  0    18.600      5
    Core    0  0  1  0    18.600      6
    Core    1  0  0  1     8.700      7
    Core    0  1  0  1     8.700      8
    Core    0  0  1  1     8.700      9
    Core    2  0  0  0    10.050     10
    Core    1  1  0  0    10.050     11
    Core    1  0  1  0    10.050     12
    Core    0  2  0  0    10.050     13
    Core    0  1  1  0    10.050     14
    Core    0  0  2  0    10.050     15
            0  0  0  3     5.100     16
            0  0  0  3     3.300     17
            0  0  0  4     2.150     18
            0  0  0  4     1.350     19
            0  0  0  4     0.870     20
            1  0  0  2     4.950     21
            0  1  0  2     4.950     22
            0  0  1  2     4.950     23
            1  0  0  2     3.300     24
            0  1  0  2     3.300     25
            0  0  1  2     3.300     26
            1  0  0  2     2.300     27
            0  1  0  2     2.300     28
            0  0  1  2     2.300     29
            2  0  0  1     3.500     30
            1  1  0  1     3.500     31
            1  0  1  1     3.500     32
            0  2  0  1     3.500     33
            0  1  1  1     3.500     34
            0  0  2  1     3.500     35
            2  0  0  1     1.850     36
            1  1  0  1     1.850     37
            1  0  1  1     1.850     38
            0  2  0  1     1.850     39
            0  1  1  1     1.850     40
            0  0  2  1     1.850     41
            2  0  0  1     0.970     42
            1  1  0  1     0.970     43
            1  0  1  1     0.970     44
            0  2  0  1     0.970     45
            0  1  1  1     0.970     46
            0  0  2  1     0.970     47
            1  0  0  3     1.350     48
            0  1  0  3     1.350     49
            0  0  1  3     1.350     50
1
 ***************************************************************************************************



                                              ***********************
                                              *  T E C H N I C A L  *
                                              ***********************
  



 =============================================================
 P A R A L L E L I Z A T I O N  and  V E C T O R I Z A T I O N
 =============================================================
  
 Nr of parallel processes:                                1
 Maximum vector length in NumInt loops:                 128



 =====================
 S C F   U P D A T E S
 =====================
  
 Max. nr. of cycles:                               300
 Convergence criterion:                              0.0000000100
   secondary criterion:                              0.0000000100

 Mix parameter (when DIIS does not apply):           0.2000000000
 Special mix parameter for the first cycle:          1.0000000000
 Mixed ADIIS+SDIIS will be used                  
    Max number of expansion vectors:                10
    Pure ADIIS when Max([F,P]) is above              0.1000000000
    Pure SDIIS when Max([F,P]) is below              0.0010000000
 Automatic ElectronSmearing (in case of problematic SCF convergence) disabled



 =================
 P R E C I S I O N  ***  (General: NumInt, NeglectFunctionTails, ...)  ***
 =================
  

 NumInt:           Target precision:                12.0000000000
 -------           Initial precision:               10.0000000000
                   Min. precision (optimization):   10.0000000000

 Neglect Functions:          Basis functions:        0.1000000000E-13
 ------------------          Fit functions:          0.1000000000E-13



 ===========================
 L I N E A R   S C A L I N G
 ===========================
  

 Cut-off radii density fit:                        0.1000000000E-97
 Overlap cut-off criterion AO matrix elements:     0.1000000000E-97
 Cut-offs for Coulomb potential and fitted density:0.1000000000E-97
 Cut-off criterion for Coulomb multipole terms:    0.1000000000E-97
 Progressive Convergence parameter:                 0.000000000    
1
 ***************************************************************************************************



                                            ***************************
                                            *  C O M P U T A T I O N  *
                                            ***************************
  

 Number of elements of the density matrix on this node (used, total):      1275      1275



 ===========================================
 Numerical Integration : Fuzzy Cells (Becke)
 ===========================================
  
 Becke grid quality: VERYGOOD       
  
 Lebedev angular grid order:             min:  13 max:  41
 Nr. of radial points:                   min: 106 max: 106

 Total nr. of points:        106
 Nr. of blocks:                1
 Block length:               106
 Nr. of dummy points:          0


 Test of Precision of the Numerical Integration Grid
 ===================================================

 Integral of the Total Core Density:                  28.00000000969493
 Relative Error:                                       3.462E-10



 ========================
 Density Fitting (zlmFit)
 ========================
  
 ZlmFit Fit Quality: VERYGOOD       
  
 Max L-expansion:                        min:   0 max:   0
 Nr. of radial interpolation points:     min: 230 max: 230



 =====
 S C F  ***  ScaSCF  ***
 =====
  

 CYCLE    1
 SCF Error: norm([F,P])=      0.000000000000, max([F,P])=      0.000000000000
 orbitals (Q,E):
 ---------------
 S :1...5            ( 2.00   -11.6814)  ( 1.00    -6.3532)  ( 0.00    -3.9976)  ( 0.00    -2.6589)
                     ( 0.00    -1.7000)
 P :1...4            ( 6.00   -10.5018)  ( 0.00    -5.8212)  ( 0.00    -3.6400)  ( 0.00    -2.5070)
 D :1...3            ( 5.00    -8.4786)  ( 0.00    -4.5701)  ( 0.00    -2.4939)

 CYCLE    2
  SDIIS (wt  0.000):  1.0000  0.0000
 A-DIIS (wt  1.000):  0.1286  0.8714
  DIIS coefficients:  0.1286  0.8714
 SCF Error: norm([F,P])=      7.148790686087, max([F,P])=      2.364314963741
 orbitals (Q,E):
 ---------------
 S :1...3            ( 2.00    -1.8793)  ( 1.00    -0.4080)  ( 0.00    -0.1761)
 P :1...2            ( 6.00    -1.0989)  ( 0.00    -0.2723)
 D :1...2            ( 5.00    -0.2758)  ( 0.00    -0.0263)

 CYCLE    3
  SDIIS (wt  0.000):  0.3519  0.6481
 A-DIIS (wt  1.000):  0.2376  0.7624
  DIIS coefficients:  0.2376  0.7624
 SCF Error: norm([F,P])=      4.212278243430, max([F,P])=      1.568530983970
 orbitals (Q,E):
 ---------------
 S :1...3            ( 2.00    -3.0898)  ( 1.00    -0.3551)  ( 0.00    -0.0106)
 P :1...2            ( 6.00    -2.0988)  ( 0.00    -0.1560)
 D :1...2            ( 5.00    -0.6568)  ( 0.00     0.0486)

 CYCLE    4
  SDIIS (wt  0.000): -0.0802  0.2380  0.8422
 A-DIIS (wt  1.000):  0.0000  0.2131  0.7869
  DIIS coefficients:  0.0000  0.2131  0.7869
 SCF Error: norm([F,P])=      1.823310320672, max([F,P])=      0.621470068658
 orbitals (Q,E):
 ---------------
 S :1...3            ( 2.00    -2.1329)  ( 1.00    -0.1098)  ( 0.00     0.0530)
 P :1...2            ( 6.00    -1.2112)  ( 0.00     0.0122)
 D :1...2            ( 5.00    -0.0245)  ( 0.00     0.1765)

 CYCLE    5
  SDIIS (wt  0.000): -0.0246 -0.0857  0.3373  0.7730
 A-DIIS (wt  1.000):  0.0000  0.0000  0.3000  0.7000
  DIIS coefficients:  0.0000  0.0000  0.3000  0.7000
 SCF Error: norm([F,P])=      1.058828219057, max([F,P])=      0.362553371378
 orbitals (Q,E):
 ---------------
 S :1...3            ( 2.00    -2.5065)  ( 1.00    -0.1954)  ( 0.00     0.0191)
 P :1...2            ( 6.00    -1.5530)  ( 0.00    -0.0541)
 D :1...2            ( 5.00    -0.2373)  ( 0.00     0.1039)

 CYCLE    6
  SDIIS (wt  0.000):  0.0107 -0.0168 -0.1404  0.2233  0.9231
 A-DIIS (wt  1.000):  0.0000  0.0000  0.0000  0.1685  0.8315
  DIIS coefficients:  0.0000  0.0000  0.0000  0.1685  0.8315
 SCF Error: norm([F,P])=      0.386302370665, max([F,P])=      0.125926487743
 orbitals (Q,E):
 ---------------
 S :1...3            ( 2.00    -2.2911)  ( 1.00    -0.1348)  ( 0.00     0.0380)
 P :1...2            ( 6.00    -1.3509)  ( 0.00    -0.0079)
 D :1...2            ( 5.00    -0.0948)  ( 0.00     0.1449)

 CYCLE    7
  SDIIS (wt  0.044): -0.0008  0.0043  0.0172 -0.1816  0.1952  0.9657
 A-DIIS (wt  0.956):  0.0000  0.0000  0.0000  0.0000  0.3526  0.6474
  DIIS coefficients: -0.0000  0.0002  0.0008 -0.0081  0.3456  0.6615
 SCF Error: norm([F,P])=      0.284734623559, max([F,P])=      0.095612429384
 orbitals (Q,E):
 ---------------
 S :1...3            ( 2.00    -2.3844)  ( 1.00    -0.1556)  ( 0.00     0.0295)
 P :1...2            ( 6.00    -1.4366)  ( 0.00    -0.0239)
 D :1...2            ( 5.00    -0.1494)  ( 0.00     0.1281)

 CYCLE    8
  SDIIS (wt  0.772):  0.0000  0.0002 -0.0034 -0.0193  0.0076  0.2482  0.7667
 A-DIIS (wt  0.228):  0.0000  0.0000  0.0000  0.0000  0.0000  0.0289  0.9711
  DIIS coefficients:  0.0000  0.0002 -0.0026 -0.0149  0.0058  0.1982  0.8133
 SCF Error: norm([F,P])=      0.070427042512, max([F,P])=      0.023581757016
 orbitals (Q,E):
 ---------------
 S :1...3            ( 2.00    -2.3580)  ( 1.00    -0.1494)  ( 0.00     0.0311)
 P :1...2            ( 6.00    -1.4122)  ( 0.00    -0.0192)
 D :1...2            ( 5.00    -0.1332)  ( 0.00     0.1325)

 CYCLE    9
  SDIIS (wt  0.929): -0.0000 -0.0000  0.0002  0.0020 -0.0040 -0.0349  0.1906  0.8461
 A-DIIS (wt  0.071):  0.0000  0.0000  0.0000  0.0000  0.0000  0.0000  0.1077  0.8923
  DIIS coefficients: -0.0000 -0.0000  0.0002  0.0018 -0.0037 -0.0324  0.1847  0.8494
 SCF Error: norm([F,P])=      0.024021634807, max([F,P])=      0.008070140854
 orbitals (Q,E):
 ---------------
 S :1...3            ( 2.00    -2.3650)  ( 1.00    -0.1511)  ( 0.00     0.0305)
 P :1...2            ( 6.00    -1.4187)  ( 0.00    -0.0205)
 D :1...2            ( 5.00    -0.1375)  ( 0.00     0.1313)

 CYCLE   10
  SDIIS (wt  1.000):  0.0000  0.0000 -0.0000 -0.0003  0.0006  0.0038 -0.0155  1.0114
  DIIS coefficients:  0.0000  0.0000 -0.0000 -0.0003  0.0006  0.0038 -0.0155  1.0114
 SCF Error: norm([F,P])=      0.001691537232, max([F,P])=      0.000569379855
 orbitals (Q,E):
 ---------------
 S :1...3            ( 2.00    -2.3645)  ( 1.00    -0.1510)  ( 0.00     0.0305)
 P :1...2            ( 6.00    -1.4182)  ( 0.00    -0.0204)
 D :1...2            ( 5.00    -0.1372)  ( 0.00     0.1314)

 CYCLE   11
  SDIIS (wt  1.000):  0.0000 -0.0000  0.0000  0.0002 -0.0008 -0.0102 -0.0868  1.0976
  DIIS coefficients:  0.0000 -0.0000  0.0000  0.0002 -0.0008 -0.0102 -0.0868  1.0976
 SCF Error: norm([F,P])=      0.000000816018, max([F,P])=      0.000000266639
 orbitals (Q,E):
 ---------------
 S :1...3            ( 2.00    -2.3645)  ( 1.00    -0.1510)  ( 0.00     0.0305)
 P :1...2            ( 6.00    -1.4182)  ( 0.00    -0.0204)
 D :1...2            ( 5.00    -0.1372)  ( 0.00     0.1314)

 CYCLE   12
  SDIIS (wt  1.000): -0.0000  0.0000  0.0001  0.0011  0.0118  0.9869
  DIIS coefficients: -0.0000  0.0000  0.0001  0.0011  0.0118  0.9869
 SCF Error: norm([F,P])=      0.000000024268, max([F,P])=      0.000000008564
 orbitals (Q,E):
 ---------------
 S :1...3            ( 2.00    -2.3645)  ( 1.00    -0.1510)  ( 0.00     0.0305)
 P :1...2            ( 6.00    -1.4182)  ( 0.00    -0.0204)
 D :1...2            ( 5.00    -0.1372)  ( 0.00     0.1314)

 SCF CONVERGED

 CYCLE   13
1
 ***************************************************************************************************



                                                *******************
                                                *  R E S U L T S  *
                                                *******************
  
 *** Using FIT density in Focky
  SDIIS (wt  1.000):  0.0000  0.0000 -0.0009 -0.0131  1.0139
  DIIS coefficients:  0.0000  0.0000 -0.0009 -0.0131  1.0139
 SCF Error: norm([F,P])=      0.000000001716, max([F,P])=      0.000000000646

 Scaled ZORA Orbital Energies, per Irrep and Spin:
 =================================================
                        Occup              E (au)              E (eV)       Diff (eV) with prev. cycle
                        -----      --------------------        ------       --------------------------
 S
               1        2.000     -0.23645412461087E+01       -64.342               1.08E-08
               2        1.000     -0.15095063251582E+00        -4.108               1.52E-08
               3        0.000      0.30491108737404E-01         0.830
               4        0.000      0.39955981712578E+00        10.873
               5        0.000      0.28259043504195E+01        76.897
 P
               1        6.000     -0.14182481541156E+01       -38.592               1.24E-08
               2        0.000     -0.20381990593673E-01        -0.555
               3        0.000      0.61122831684606E+00        16.632
               4        0.000      0.40294008516846E+01       109.646
 D
               1        5.000     -0.13719857998971E+00        -3.733               1.57E-08
               2        0.000      0.13138303481334E+00         3.575
               3        0.000      0.10915573963069E+01        29.703


 Partially Occupied:
               2 S                -0.15095063251582E+00
               1 D                -0.13719857998971E+00
  
 HOMO :        1 P                -0.14182481541156E+01
 LUMO :        2 P                -0.20381990593673E-01
  


 Orbital Energies, all Irreps
 ========================================

 Irrep        no.  (spin)   Occup              E (au)                E (eV)
 ---------------------------------------------------------------------------
 S             1             2.00       -0.23645412461087E+01       -64.3424
 P             1             6.00       -0.14182481541156E+01       -38.5925
 S             2             1.00       -0.15095063251582E+00        -4.1076
 D             1             5.00       -0.13719857998971E+00        -3.7334
 P             2             0.00       -0.20381990593673E-01        -0.5546
 S             3             0.00        0.30491108737404E-01         0.8297
 D             2             0.00        0.13138303481334E+00         3.5751
 S             4             0.00        0.39955981712578E+00        10.8726
 P             3             0.00        0.61122831684606E+00        16.6324
 D             3             0.00        0.10915573963069E+01        29.7028
 S             5             0.00        0.28259043504195E+01        76.8968
 P             4             0.00        0.40294008516846E+01       109.6456


 Scaled ZORA Orbital Energies of the Core Orbitals:
 ==================================================

 (Note that the atoms are grouped by atomtype, see the labels, and may hence NOT be in input order)

 AtomType  Orbital  Atom                   E (au)                        E (eV)
 --------  -------  ----           --------------------        ----------------
 Mo          1S        1          -0.72810156987753E+03              -19812.652
             2S        1          -0.10281078869890E+03               -2797.624
             3S        1          -0.17490063510859E+02                -475.929
             2P        1          -0.91890973277880E+02               -2500.481
             3P        1          -0.13936907885645E+02                -379.243
             3D        1          -0.81284558211672E+01                -221.187



 =======================================
 M U L L I K E N   P O P U L A T I O N S
 =======================================
  
 The survey below gives for each atom:
 a) the total charge (Z minus electrons)
 b) the net spin polarization (nr of electrons spin-A minus spin-B)
 c) for each spin the atomic electron valence density (integrated) per L-value.

 Atom              Charge    Spin density          S         P         D         F
 ----              ------    ------------       ------    ------    ------    ------
 1 Mo              0.0000                       3.0000    6.0000    5.0000    0.0000

 Populations of individual BAS functions
 ----------------------------------------
 1 Mo          -0.0051  0.0033 -0.0315  0.0008  0.0008  0.0008  0.0345  0.0345  0.0345  0.0153
                0.0230  0.0230  0.0153  0.0230  0.0153  1.3114  0.7310  0.3903  0.5032  0.0973
                0.7293  0.7293  0.7293  1.1024  1.1024  1.1024  0.1310  0.1310  0.1310  0.2744
                0.4116  0.4116  0.2744  0.4116  0.2744  0.3155  0.4732  0.4732  0.3155  0.4732
                0.3155  0.0615  0.0922  0.0922  0.0615  0.0922  0.0615  0.0019  0.0019  0.0019

 Gross Charges per Atom (Z minus electrons)
 ==========================================
             0.0000
 Net Total:  0.00000000



 =======================================================================
 Electrostatic potential at the Nuclei due to electrons and other nuclei
 =======================================================================
  
         Atom                  Potential
         ----                  ---------
     1)   Mo                232.78835403
 
 
 ========================
 No memory problems found
 ========================
 
 Maximum number of active allocate calls:         389
 
 *******************************************************************************

                             A D F   E X I T
 NORMAL TERMINATION



 =================
 Timing Statistics
 =================
  
 Total Used :                     CPU=        0.68      System=        0.02     Elapsed=        0.73

 Calls  Section                     ( Mean, Percentage )
 ---------------------------------------------------------------------------------------------------
     3  ><      ................      0.00    0.59             0.00    0.00             0.00    0.60
     1  INIT    ................      0.06    9.47             0.00   20.00             0.07    9.95
     1  GEOMET  ................      0.02    2.37             0.00    0.00             0.02    3.27
     1  INPUTA  ................      0.00    0.59             0.00    0.00             0.00    0.48
     1  MAINSY  ................      0.01    1.78             0.00   20.00             0.02    2.42
     1  SYMFIT  ................      0.00    0.00             0.00    0.00             0.00    0.22
     1  CORORT  ................      0.00    0.59             0.00    0.00             0.00    0.24
     1  SYMORB  ................      0.00    0.00             0.00    0.00             0.00    0.13
     1  CLSMAT  ................      0.00    0.59             0.00    0.00             0.01    0.73
     1  ORTHON  ................      0.00    0.59             0.00    0.00             0.01    0.74
     1  GENPT   ................      0.02    2.96             0.00    0.00             0.02    2.82
     1  PTBAS   ................      0.00    0.59             0.00    0.00             0.01    0.76
    13  FOCKY   ................      0.04   68.05             0.00   40.00             0.04   64.12
    13  FOCKTR  ................      0.00    1.78             0.00    0.00             0.00    1.10
    13  SDIIS   ................      0.00    2.96             0.00   20.00             0.00    4.86
     1  COREPS  ................      0.03    4.14             0.00    0.00             0.03    4.56
     1  POPAN   ................      0.00    0.59             0.00    0.00             0.00    0.66
     1  DEBYE   ................      0.00    0.59             0.00    0.00             0.00    0.27
     1  EXIT PROCEDURE .........      0.01    1.78             0.00    0.00             0.02    2.08


 Currently Open Files (EXIT00)
 ====================

 Unit    Access Format  Status   Type       Ident (file)
 -------------------------------------------------------
   3      SEQ    FORM   TRANSP  NORMAL      LOGFILE
                                          ( logfile )

 ***************************************************************************************************
 (LOGFILE)
 <Mar17-2023> <18:37:42>  DIRAC 2019  RunTime: Mar17-2023 18:37:42  Nodes: 1  Procs: 1
 <Mar17-2023> <18:37:42>  NORMAL TERMINATION
 <Mar17-2023> <18:37:42>  END
 <Mar17-2023> <18:37:42>  ADF 2019  RunTime: Mar17-2023 18:37:42  Nodes: 1  Procs: 1
 <Mar17-2023> <18:37:42>  Hydrogen (TZP)
 <Mar17-2023> <18:37:42>  RunType   : CREATE
 <Mar17-2023> <18:37:42>  Net Charge: 0 (Nuclei minus Electrons)
 <Mar17-2023> <18:37:42>  Symmetry  : ATOM
  Coordinates
    Atom         X           Y           Z   (Angstrom)
    1.H         0.000000    0.000000    0.000000
 <Mar17-2023> <18:37:42>  >>>> CORORT
 <Mar17-2023> <18:37:42>  >>>> CLSMAT
 <Mar17-2023> <18:37:42>  >>>> ORTHON
 <Mar17-2023> <18:37:42>  >>>> GENPT
 <Mar17-2023> <18:37:42>  Block Length=  64
 <Mar17-2023> <18:37:42>  >>>> PTBAS
 <Mar17-2023> <18:37:42>  >>>> CYCLE
 <Mar17-2023> <18:37:42>              |Error|         MaxErr       Wt(A-DIIS)
 <Mar17-2023> <18:37:42>      1      0.00000000      0.00000000
 <Mar17-2023> <18:37:42>      2      0.03153787      0.03011049
 <Mar17-2023> <18:37:42>      3      0.00861799      0.00834303    100.0
 <Mar17-2023> <18:37:42>      4      0.00173235      0.00171862      0.7
 <Mar17-2023> <18:37:42>      5      0.00004367      0.00003977      0.0
 <Mar17-2023> <18:37:42>      6      0.00000238      0.00000216      0.0
 <Mar17-2023> <18:37:42>      7      0.00000001      0.00000001      0.0
 <Mar17-2023> <18:37:42>  SCF converged
 <Mar17-2023> <18:37:42>      8      0.00000000      0.00000000      0.0
 <Mar17-2023> <18:37:42>  >>>> POPAN
 <Mar17-2023> <18:37:42>  >>>> DEBYE
 <Mar17-2023> <18:37:42>  NORMAL TERMINATION
 <Mar17-2023> <18:37:42>  END
 <Mar17-2023> <18:37:42>  DIRAC 2019  RunTime: Mar17-2023 18:37:42  Nodes: 1  Procs: 1
 <Mar17-2023> <18:37:43>  NORMAL TERMINATION
 <Mar17-2023> <18:37:43>  END
 <Mar17-2023> <18:37:43>  ADF 2019  RunTime: Mar17-2023 18:37:43  Nodes: 1  Procs: 1
 <Mar17-2023> <18:37:43>  Molybdenum (TZP, 3d frozen)
 <Mar17-2023> <18:37:43>  RunType   : CREATE
 <Mar17-2023> <18:37:43>  Net Charge: 0 (Nuclei minus Electrons)
 <Mar17-2023> <18:37:43>  Symmetry  : ATOM
  Coordinates
    Atom         X           Y           Z   (Angstrom)
    1.Mo        0.000000    0.000000    0.000000
 <Mar17-2023> <18:37:43>  >>>> CORORT
 <Mar17-2023> <18:37:43>  >>>> CLSMAT
 <Mar17-2023> <18:37:43>  >>>> ORTHON
 <Mar17-2023> <18:37:43>  >>>> GENPT
 <Mar17-2023> <18:37:43>  Block Length= 106
 <Mar17-2023> <18:37:43>  >>>> PTBAS
 <Mar17-2023> <18:37:43>  >>>> CYCLE
 <Mar17-2023> <18:37:43>              |Error|         MaxErr       Wt(A-DIIS)
 <Mar17-2023> <18:37:43>      1      0.00000000      0.00000000
 <Mar17-2023> <18:37:43>      2      7.14879069      2.36431496    100.0
 <Mar17-2023> <18:37:43>      3      4.21227824      1.56853098    100.0
 <Mar17-2023> <18:37:43>      4      1.82331032      0.62147007    100.0
 <Mar17-2023> <18:37:43>      5      1.05882822      0.36255337    100.0
 <Mar17-2023> <18:37:43>      6      0.38630237      0.12592649    100.0
 <Mar17-2023> <18:37:43>      7      0.28473462      0.09561243     95.6
 <Mar17-2023> <18:37:43>      8      0.07042704      0.02358176     22.8
 <Mar17-2023> <18:37:43>      9      0.02402163      0.00807014      7.1
 <Mar17-2023> <18:37:43>     10      0.00169154      0.00056938      0.0
 <Mar17-2023> <18:37:43>     11      0.00000082      0.00000027      0.0
 <Mar17-2023> <18:37:43>     12      0.00000002      0.00000001      0.0
 <Mar17-2023> <18:37:43>  SCF converged
 <Mar17-2023> <18:37:43>     13      0.00000000      0.00000000      0.0
 <Mar17-2023> <18:37:43>  >>>> POPAN
 <Mar17-2023> <18:37:43>  >>>> DEBYE
 <Mar17-2023> <18:37:43>  NORMAL TERMINATION
 <Mar17-2023> <18:37:43>  END

 *******************************************************************************
 *                                                                             *
 *  -------------------------------------                                      *
 *   Amsterdam Density Functional  (ADF)         2019                          *
 *  -------------------------------------                                      *
 *                                               r74351 2019-04-25             *
 *                                                                             *
 *                                                                             *
 *                            =====================                            *
 *                            |                   |                            *
 *                            |     D I R A C     |                            *
 *                            |                   |                            *
 *                            =====================                            *
 *                                                                             *
 *                                                                             *
 *   Online information and documentation:  https://www.scm.com/support/       *
 *   E-mail:  support@scm.com   info@scm.com                                   *
 *                                                                             *
 *   Scientific publications using ADF results must be properly referenced     *
 *   See the User Manuals (or the web site) for recommended citations          *
 *   The terms and conditions of the End User License Agreement apply to       *
 *   the use of ADF, https://www.scm.com/license-terms/                        *
 *                                                                             *
 **********************  x86_64_linux_intel / intelmpi  ************************
 
 Licensed to: Dr. Carles Bo / Institute of Chemical Research of Catalonia ( (ICIQ) / Tarragona / Spain 2022-11-28 14:37:29
 SCM User ID: u7609
  
 DIRAC 2019  RunTime: Mar17-2023 18:37:44  Nodes: 1  Procs: 1

 Temporary files are created in /scratch/kid_0.1814776234

1
 OXYGEN ATOM 1s CORE RELATIVISTIC, Point Nuc, A and c from li
 N J RN H ZN XION ANUC CLIGHT
 5000    4100.00000000197.36710137  8.00000000  0.00000000   15.994914  0.1370360E+03
  PH   PHI     EPS        DEL        DELRVR
  0.30  0.30     2500.00  0.00001000  0.00001000
 IDIRC  NC1  NDEBU NPRIN  IPUN IRCOR IWCOR
   1   300     0     0     0     0     1
   XALPHA      XLATTER      RNUC
  0.70000000  0.00000000  0.00000000 Point Charge
   XN   XL   XJ      XE          XZ      XDELL
  1.0  0.0  0.5      -5.000       2.000     0.00000
  2.0  0.0  0.5      -1.000       2.000     0.00000
  2.0  1.0  0.5      -1.000       2.000     0.00000
  2.0  1.0  1.5      -1.000       2.000     0.00000
 ICORP=  0  NPCL=  0  DEMP=0.00  PEPS=0.000000
 R(1)=  0.1000000E-08 D=  0.1005080E+01 RNUC=  0.0000000E+00
 converged at cycle   28  DENSITY AVERAGING    0.2400
  MAXIMUM ERROR IN R.V(R) IS   0.81125670E-05
 Q,EY,EV,EZ,ESUM,ETOT,RHO  0.800000E+01 -0.101247E+02 -0.114961E+03 -0.177573E+03 -0.405053E+02 -0.743427E+02  0.414766E-14


 DIRAC CALCULATION
1                    OXYGEN ATOM 1s CORE RELATIVISTIC, Point Nuc, A and c from libtc


 EXCHANGE COEFFICIENT=  0.7000000           TAIL CORRECTION=  0.           NUCLEAR RADIUS=  0.000E+00
0                       ORBITAL    N    L    J     ELECTRONS     EIGENVALUE                DELTA OF EIGENV.

                          1S1/2  1.0  0.0  0.5     2.000       -0.1880014E+02                 0.7264358E-06
                          2S1/2  2.0  0.0  0.5     2.000       -0.8412236E+00                 0.5932752E-05
                          2P1/2  2.0  1.0  0.5     2.000       -0.3063203E+00                 0.5998471E-05
                          2P3/2  2.0  1.0  1.5     2.000       -0.3049609E+00                 0.5986971E-05


                                        NUCLEAR CHARGE=    8.000000
                            INTEGRAL OF CHARGE DENSITY=    8.000000
                           SUM OF THE ORBITAL ENERGIES=    -40.5053
                                          TOTAL ENERGY=    -74.3427
                                        KINETIC ENERGY=     74.4552
                             NUCLEAR ATTRACTION ENERGY=   -177.5730
                             ELECTRON REPULSION ENERGY=     36.3686
                                       EXCHANGE ENERGY=     -7.5935

 *******************************************************************************

                             D I R A C   E X I T
 NORMAL TERMINATION



 =================
 Timing Statistics
 =================
  
 Total Used :                     CPU=        0.10      System=        0.00     Elapsed=        0.11

 Calls  Section                     ( Mean, Percentage )
 ---------------------------------------------------------------------------------------------------
     2  ><      ................      0.00    0.00             0.00    0.00             0.00    0.01
     1  EXIT PROCEDURE .........      0.10  100.00             0.00  100.00             0.11   99.99


 Currently Open Files (EXIT00)
 ====================

 Unit    Access Format  Status   Type       Ident (file)
 -------------------------------------------------------
   3      SEQ    FORM   TRANSP  NORMAL      LOGFILE
                                          ( logfile )
 
Create O   file=TZP-O.1s
XC
  GGA PBE
End
relativistic ZORA
Corepotentials t12.rel
End

 *******************************************************************************
 *                                                                             *
 *  -------------------------------------                                      *
 *   Amsterdam Density Functional  (ADF)         2019                          *
 *  -------------------------------------                                      *
 *                                               r74351 2019-04-25             *
 *                                                                             *
 *                                                                             *
 *                              =================                              *
 *                              |               |                              *
 *                              |     A D F     |                              *
 *                              |               |                              *
 *                              =================                              *
 *                                                                             *
 *                                                                             *
 *   Online information and documentation:  https://www.scm.com/support/       *
 *   E-mail:  support@scm.com   info@scm.com                                   *
 *                                                                             *
 *   Scientific publications using ADF results must be properly referenced     *
 *   See the User Manuals (or the web site) for recommended citations          *
 *   The terms and conditions of the End User License Agreement apply to       *
 *   the use of ADF, https://www.scm.com/license-terms/                        *
 *                                                                             *
 **********************  x86_64_linux_intel / intelmpi  ************************
 
 Licensed to: Dr. Carles Bo / Institute of Chemical Research of Catalonia ( (ICIQ) / Tarragona / Spain 2022-11-28 14:37:29
 SCM User ID: u7609
  
 ADF 2019  RunTime: Mar17-2023 18:37:44  Nodes: 1  Procs: 1

 Temporary files are created in /scratch/kid_0.1584973983

 Oxygen (TZP, 1s frozen)



 ===========================
 A T T A C H E D   F I L E S
 ===========================
  
 CREATE - Data File:    TZP-O.1s
                        Oxygen (TZP, 1s frozen)
 Core Potentials:
         file : t12.rel



 ===============================
 M O D E L   P A R A M E T E R S
 ===============================
  
 DENSITY FUNCTIONAL POTENTIAL (scf)
    LDA:                               PW92                                    == Not Default ==
    Gradient Corrections:              PBEc PBEx                               == Not Default ==

 SPIN  (restricted / unrestr.)
    Molecule:                          Restricted                               

 OTHER ASPECTS
    Relativistic Corrections:          scalar (ZORA,MAPA)                      == Not Default ==

    Nuclear Charge Density Model:      Point Charge Nuclei                      
    Core Treatment:                    Frozen Orbital(s)                        

    Hyperfine or Zeeman Interaction:   ---                                      



 =====================================
 S Y M M E T R Y ,   E L E C T R O N S
 =====================================
  
 Symmetry: ATOM

 Irreducible Representations, including subspecies
 -------------------------------------------------
 S
 P:x  P:y  P:z
 D:z2  D:x2-y2  D:xy  D:xz  D:yz
 F:z3  F:z  F:xyz  F:z2x  F:z2y  F:x  F:y


 Configuration of Valence Electrons
 ==================================

          Occupation Numbers
          -------------------------------------------------
 S        2
 P        4
 D        0
 F        0
          -------------------------------------------------

 Total:   6

 Net Charge: 0 (Nuclei minus Electrons)

 Preset values for MO occupations will be applied through SCF cycle no. 1000000
 Thereafter, the program will assign electrons to MOs that are spatially
 similar to the occupied MOs in a "reference" cycle ("KeepOrbitals").
 The reference cycle is always the PREVIOUS cycle: it will evolve with
 the SCF procedure.



 ================================
 (Slater-type)  F U N C T I O N S  ***  (Basis and Fit)  ***
 ================================
  

 Atom Type    1  (O)
 ==============

 Valence Basis Sets:   8
 -----------------------
   1 S    7.360000
   2 S    1.720000
   2 S    2.880000
   2 S    7.580000
   2 P    1.120000
   2 P    2.080000
   2 P    4.080000
   3 D    2.000000

 Frozen Core Shells
 ------------------
    S:  1


 BAS: List of all Elementary Cartesian Basis Functions
 =====================================================

 The numbering in the list below (to the right of the function characteristics) is referred
 to in print-outs of MO eigenvectors and Mulliken populations in the BAS representation
 (as contrasted to the SFO representation).

 Notes:
 1. The functions are characterized by a polynomial prefactor (powers of x,y,z and r) and
    an exponential decay factor alpha.
 2. Since the basis sets are specific for an atom TYPE, the individual functions occur on
    all atoms of that type.
 3. The word 'Core' in the left margin signals that it is a Core Function (CF) : not a
    degree of freedom in the valence set, but only used to ensure orthogonalization of
    the other valence basis functions on the frozen Core Orbitals.


 (power of) X  Y  Z  R     Alpha  on Atom
            ==========     =====     ==========

 O                                    1
                                  ---------------------------------------------------------------------------
    Core    0  0  0  0     7.360      1
            0  0  0  1     1.720      2
            0  0  0  1     2.880      3
            0  0  0  1     7.580      4
            1  0  0  0     1.120      5
            0  1  0  0     1.120      6
            0  0  1  0     1.120      7
            1  0  0  0     2.080      8
            0  1  0  0     2.080      9
            0  0  1  0     2.080     10
            1  0  0  0     4.080     11
            0  1  0  0     4.080     12
            0  0  1  0     4.080     13
            2  0  0  0     2.000     14
            1  1  0  0     2.000     15
            1  0  1  0     2.000     16
            0  2  0  0     2.000     17
            0  1  1  0     2.000     18
            0  0  2  0     2.000     19

 Total number of charge fitting functions (nprimf)        82
 Total number of Cartesian basis functions (naos)         19
 Total number of Cartesian core functions  (ncos)          1



 BAS: List of all Elementary Cartesian Basis Functions
 =====================================================

 The numbering in the list below (to the right of the function characteristics) is referred
 to in print-outs of MO eigenvectors and Mulliken populations in the BAS representation
 (as contrasted to the SFO representation).

 Notes:
 1. The functions are characterized by a polynomial prefactor (powers of x,y,z and r) and
    an exponential decay factor alpha.
 2. Since the basis sets are specific for an atom TYPE, the individual functions occur on
    all atoms of that type.
 3. The word 'Core' in the left margin signals that it is a Core Function (CF) : not a
    degree of freedom in the valence set, but only used to ensure orthogonalization of
    the other valence basis functions on the frozen Core Orbitals.


 (power of) X  Y  Z  R     Alpha  on Atom
            ==========     =====     ==========

 O                                    1
                                  ---------------------------------------------------------------------------
    Core    0  0  0  0     7.360      1
            0  0  0  1     1.720      2
            0  0  0  1     2.880      3
            0  0  0  1     7.580      4
            1  0  0  0     1.120      5
            0  1  0  0     1.120      6
            0  0  1  0     1.120      7
            1  0  0  0     2.080      8
            0  1  0  0     2.080      9
            0  0  1  0     2.080     10
            1  0  0  0     4.080     11
[...]
 <Mar17-2023> <20:36:22>     15      0.00017810      0.00001950      0.0
 <Mar17-2023> <20:36:24>     16      0.00006805      0.00001111      0.0
 <Mar17-2023> <20:36:26>     17      0.00015082      0.00002000      0.0
 <Mar17-2023> <20:36:28>     18      0.00001810      0.00000269      0.0
 <Mar17-2023> <20:36:31>     19      0.00004608      0.00000447      0.0
 <Mar17-2023> <20:36:33>     20      0.00002520      0.00000325      0.0
 <Mar17-2023> <20:36:35>     21      0.00001800      0.00000412      0.0
 <Mar17-2023> <20:36:37>     22      0.00000375      0.00000050      0.0
 <Mar17-2023> <20:36:38>  SCF converged
 <Mar17-2023> <20:36:39>     23      0.00000207      0.00000023      0.0
 <Mar17-2023> <20:36:40>  >>>> TOTEN
 <Mar17-2023> <20:36:43>  >>>> POPAN
 <Mar17-2023> <20:36:43>  >>>> DEBYE
 <Mar17-2023> <20:36:43>  >>>> ENGRAD
 <Mar17-2023> <20:36:54>  current energy                               -8.89895779 Hartree
 <Mar17-2023> <20:36:54>  energy change                      -0.00004601     0.00100000    T
 <Mar17-2023> <20:36:54>  constrained gradient max            0.00118841     0.00100000    F
 <Mar17-2023> <20:36:54>  constrained gradient rms            0.00027926     0.00066667    T
 <Mar17-2023> <20:36:54>  gradient max                        0.00118841
 <Mar17-2023> <20:36:54>  gradient rms                        0.00027926
 <Mar17-2023> <20:36:54>  cart. step max                      0.02252364     0.01000000    F
 <Mar17-2023> <20:36:54>  cart. step rms                      0.00769045     0.00666667    F
  Coordinates in Geometry Cycle 101
    Atom         X           Y           Z   (Angstrom)
    1.O         4.154483   -1.945089    0.822748
    2.Mo       -0.126920    3.536419   -0.326446
    3.O        -2.688912   -0.144197    0.692013
    4.Mo       -0.206243   -3.856495    0.160191
    5.O         0.022841    4.980554    0.673101
    6.Mo       -2.747411   -2.042803    0.242801
    7.O         0.001463   -5.282157    1.172277
    8.Mo        3.322846    2.049091    0.080984
    9.O         1.948202   -1.643924   -1.486463
   10.Mo        2.520634   -1.433268    0.427734
   11.O        -3.768984    2.419080    1.059685
   12.Mo       -2.604763    1.647819   -0.014071
   13.O         1.672349    2.764923    0.460010
   14.O         0.584725    3.821858   -1.910016
   15.O        -2.081637   -3.945792   -0.179108
   16.O         1.552184   -3.011216    0.775831
   17.O         3.219622    0.333811   -0.580717
   18.O        -3.997372   -2.558445    1.368528
   19.O         4.303987    2.104757    1.547134
   20.O         4.119425    3.026438   -1.150607
   21.O        -1.960368    3.548383   -0.721068
   22.O         0.434777   -4.108323   -1.475591
   23.O        -3.387825   -1.862093   -1.384733
   24.O        -3.288126    1.328216   -1.602599
   25.O        -0.846757   -2.060968    0.753779
   26.O         1.924611   -0.374539    1.694516
   27.O        -0.694123    1.722687    0.339538
   28.H         1.470296   -2.506267   -1.579532
 <Mar17-2023> <20:36:54>  >>>> CORORT
 <Mar17-2023> <20:36:54>  >>>> CLSMAT
 <Mar17-2023> <20:36:54>  >>>> ORTHON
 <Mar17-2023> <20:36:54>  >>>> GENPT
 <Mar17-2023> <20:36:55>  Block Length= 128
 <Mar17-2023> <20:36:55>  >>>> PTBAS
 <Mar17-2023> <20:36:57>  combining surface points...
 <Mar17-2023> <20:36:57>  combining surface points...
 <Mar17-2023> <20:36:57>  combining surface points...
 <Mar17-2023> <20:36:57>  >>>> CYCLE
 <Mar17-2023> <20:37:00>              |Error|         MaxErr       Wt(A-DIIS)
 <Mar17-2023> <20:37:00>      1      0.15835153      0.01161676
 <Mar17-2023> <20:37:03>      2      0.60044888      0.05083400    100.0
 <Mar17-2023> <20:37:05>      3      0.17019195      0.01327387    100.0
 <Mar17-2023> <20:37:08>      4      0.14788254      0.01316509     12.3
 <Mar17-2023> <20:37:10>      5      0.30751174      0.03547425    100.0
 <Mar17-2023> <20:37:13>      6      0.23400361      0.02580212    100.0
 <Mar17-2023> <20:37:15>      7      0.10597416      0.01602501     15.2
 <Mar17-2023> <20:37:17>      8      0.04700994      0.00639518      5.4
 <Mar17-2023> <20:37:20>      9      0.01725194      0.00284178      1.9
 <Mar17-2023> <20:37:22>     10      0.00902460      0.00188791      0.9
 <Mar17-2023> <20:37:25>     11      0.00204243      0.00025039      0.0
 <Mar17-2023> <20:37:27>     12      0.00156688      0.00018022      0.0
 <Mar17-2023> <20:37:29>     13      0.00097198      0.00017804      0.0
 <Mar17-2023> <20:37:32>     14      0.00030298      0.00004275      0.0
 <Mar17-2023> <20:37:34>     15      0.00017490      0.00001934      0.0
 <Mar17-2023> <20:37:36>     16      0.00006809      0.00001067      0.0
 <Mar17-2023> <20:37:38>     17      0.00012136      0.00001593      0.0
 <Mar17-2023> <20:37:40>     18      0.00001532      0.00000209      0.0
 <Mar17-2023> <20:37:43>     19      0.00003165      0.00000363      0.0
 <Mar17-2023> <20:37:45>     20      0.00002222      0.00000316      0.0
 <Mar17-2023> <20:37:47>     21      0.00001602      0.00000373      0.0
 <Mar17-2023> <20:37:49>     22      0.00000289      0.00000039      0.0
 <Mar17-2023> <20:37:50>  SCF converged
 <Mar17-2023> <20:37:51>     23      0.00000172      0.00000017      0.0
 <Mar17-2023> <20:37:52>  >>>> TOTEN
 <Mar17-2023> <20:37:55>  >>>> POPAN
 <Mar17-2023> <20:37:55>  >>>> DEBYE
 <Mar17-2023> <20:37:55>  >>>> ENGRAD
 <Mar17-2023> <20:38:06>  current energy                               -8.89895087 Hartree
 <Mar17-2023> <20:38:06>  energy change                       0.00000692     0.00100000    T
 <Mar17-2023> <20:38:06>  constrained gradient max            0.00051722     0.00100000    T
 <Mar17-2023> <20:38:06>  constrained gradient rms            0.00016398     0.00066667    T
 <Mar17-2023> <20:38:06>  gradient max                        0.00051722
 <Mar17-2023> <20:38:06>  gradient rms                        0.00016398
 <Mar17-2023> <20:38:06>  cart. step max                      0.00805278     0.01000000    T
 <Mar17-2023> <20:38:06>  cart. step rms                      0.00260765     0.00666667    T
 <Mar17-2023> <20:38:06>  GEOMETRY CONVERGED
 <Mar17-2023> <20:38:06>  Calculating Energy Terms for Final Geometry
  Coordinates in Geometry Cycle 101
    Atom         X           Y           Z   (Angstrom)
    1.O         4.154483   -1.945089    0.822748
    2.Mo       -0.126920    3.536419   -0.326446
    3.O        -2.688912   -0.144197    0.692013
    4.Mo       -0.206243   -3.856495    0.160191
    5.O         0.022841    4.980554    0.673101
    6.Mo       -2.747411   -2.042803    0.242801
    7.O         0.001463   -5.282157    1.172277
    8.Mo        3.322846    2.049091    0.080984
    9.O         1.948202   -1.643924   -1.486463
   10.Mo        2.520634   -1.433268    0.427734
   11.O        -3.768984    2.419080    1.059685
   12.Mo       -2.604763    1.647819   -0.014071
   13.O         1.672349    2.764923    0.460010
   14.O         0.584725    3.821858   -1.910016
   15.O        -2.081637   -3.945792   -0.179108
   16.O         1.552184   -3.011216    0.775831
   17.O         3.219622    0.333811   -0.580717
   18.O        -3.997372   -2.558445    1.368528
   19.O         4.303987    2.104757    1.547134
   20.O         4.119425    3.026438   -1.150607
   21.O        -1.960368    3.548383   -0.721068
   22.O         0.434777   -4.108323   -1.475591
   23.O        -3.387825   -1.862093   -1.384733
   24.O        -3.288126    1.328216   -1.602599
   25.O        -0.846757   -2.060968    0.753779
   26.O         1.924611   -0.374539    1.694516
   27.O        -0.694123    1.722687    0.339538
   28.H         1.470296   -2.506267   -1.579532
 <Mar17-2023> <20:38:06>  >>>> CORORT
 <Mar17-2023> <20:38:06>  >>>> CLSMAT
 <Mar17-2023> <20:38:06>  >>>> ORTHON
 <Mar17-2023> <20:38:06>  >>>> GENPT
 <Mar17-2023> <20:38:06>  Block Length= 128
 <Mar17-2023> <20:38:07>  >>>> PTBAS
 <Mar17-2023> <20:38:08>  combining surface points...
 <Mar17-2023> <20:38:08>  combining surface points...
 <Mar17-2023> <20:38:08>  combining surface points...
 <Mar17-2023> <20:38:08>  >>>> CYCLE
 <Mar17-2023> <20:38:12>              |Error|         MaxErr       Wt(A-DIIS)
 <Mar17-2023> <20:38:12>      1      0.15220744      0.01357391
 <Mar17-2023> <20:38:15>      2      0.59662117      0.05367661    100.0
 <Mar17-2023> <20:38:17>      3      0.16819781      0.01690923    100.0
 <Mar17-2023> <20:38:20>      4      0.14904484      0.01631987     15.5
 <Mar17-2023> <20:38:22>      5      0.32230703      0.04618965    100.0
 <Mar17-2023> <20:38:24>      6      0.21356709      0.02767889    100.0
 <Mar17-2023> <20:38:27>      7      0.12223012      0.01732251     16.5
 <Mar17-2023> <20:38:29>      8      0.04500703      0.00760035      6.7
 <Mar17-2023> <20:38:32>      9      0.01942775      0.00266563      1.7
 <Mar17-2023> <20:38:34>     10      0.00888729      0.00188387      0.9
 <Mar17-2023> <20:38:36>     11      0.00202295      0.00022672      0.0
 <Mar17-2023> <20:38:39>     12      0.00155698      0.00019585      0.0
 <Mar17-2023> <20:38:41>     13      0.00093867      0.00016329      0.0
 <Mar17-2023> <20:38:43>     14      0.00028920      0.00003770      0.0
 <Mar17-2023> <20:38:46>     15      0.00017121      0.00002227      0.0
 <Mar17-2023> <20:38:48>     16      0.00007646      0.00001002      0.0
 <Mar17-2023> <20:38:50>     17      0.00004369      0.00000671      0.0
 <Mar17-2023> <20:38:52>     18      0.00001471      0.00000160      0.0
 <Mar17-2023> <20:38:54>     19      0.00003602      0.00000407      0.0
 <Mar17-2023> <20:38:57>     20      0.00001900      0.00000254      0.0
 <Mar17-2023> <20:38:59>     21      0.00001625      0.00000323      0.0
 <Mar17-2023> <20:39:01>     22      0.00000228      0.00000024      0.0
 <Mar17-2023> <20:39:02>  SCF converged
 <Mar17-2023> <20:39:03>     23      0.00000146      0.00000022      0.0
 <Mar17-2023> <20:39:05>  >>>> TOTEN
 <Mar17-2023> <20:39:11>  QTAIM: determining topology...
 <Mar17-2023> <20:39:16>  >>>> POPAN
 <Mar17-2023> <20:39:16>  >>>> DEBYE
 <Mar17-2023> <20:39:16>  >>>> AMETS
 <Mar17-2023> <20:39:16>  >>>> POPUL
 <Mar17-2023> <20:39:16>   Bond Energy          -8.89895087 a.u.
 <Mar17-2023> <20:39:16>   Bond Energy        -242.15277409 eV
 <Mar17-2023> <20:39:16>   Bond Energy       -5584.18       kcal/mol
 <Mar17-2023> <20:39:16>  >>>> ENHESS
 <Mar17-2023> <20:39:24>  === NUCLEUS:     1
 <Mar17-2023> <20:41:57>  === NUCLEUS:     2
 <Mar17-2023> <20:44:23>  === NUCLEUS:     3
 <Mar17-2023> <20:46:47>  === NUCLEUS:     4
 <Mar17-2023> <20:49:15>  === NUCLEUS:     5
 <Mar17-2023> <20:51:42>  === NUCLEUS:     6
 <Mar17-2023> <20:54:06>  === NUCLEUS:     7
 <Mar17-2023> <20:56:30>  === NUCLEUS:     8
 <Mar17-2023> <20:58:51>  === NUCLEUS:     9
 <Mar17-2023> <21:01:14>  === NUCLEUS:    10
 <Mar17-2023> <21:03:39>  === NUCLEUS:    11
 <Mar17-2023> <21:06:03>  === NUCLEUS:    12
 <Mar17-2023> <21:08:32>  === NUCLEUS:    13
 <Mar17-2023> <21:10:57>  === NUCLEUS:    14
 <Mar17-2023> <21:13:18>  === NUCLEUS:    15
 <Mar17-2023> <21:15:41>  === NUCLEUS:    16
 <Mar17-2023> <21:18:04>  === NUCLEUS:    17
 <Mar17-2023> <21:20:30>  === NUCLEUS:    18
 <Mar17-2023> <21:22:53>  === NUCLEUS:    19
 <Mar17-2023> <21:25:13>  === NUCLEUS:    20
 <Mar17-2023> <21:27:36>  === NUCLEUS:    21
 <Mar17-2023> <21:30:00>  === NUCLEUS:    22
 <Mar17-2023> <21:32:32>  === NUCLEUS:    23
 <Mar17-2023> <21:35:06>  === NUCLEUS:    24
 <Mar17-2023> <21:37:38>  === NUCLEUS:    25
 <Mar17-2023> <21:40:06>  === NUCLEUS:    26
 <Mar17-2023> <21:42:42>  === NUCLEUS:    27
 <Mar17-2023> <21:45:11>  === NUCLEUS:    28
 <Mar17-2023> <21:47:33>  >>>> CALC_HESS_PMAT
 <Mar17-2023> <21:48:05>  >>>> CALC_HESS_WMAT
 <Mar17-2023> <21:48:11>  Symmetry  : NOSYM
 <Mar17-2023> <21:48:11>  >>>> FRAGM
 <Mar17-2023> <21:48:11>  Geometry symmetry displacement    1 out of    2
  Coordinates in Geometry Cycle 101
    Atom         X           Y           Z   (Angstrom)
    1.O         4.154538   -1.945336    0.823238
    2.Mo       -0.127062    3.536434   -0.326518
    3.O        -2.688974   -0.144214    0.691929
    4.Mo       -0.206230   -3.856449    0.160190
    5.O         0.022917    4.980262    0.673441
    6.Mo       -2.747426   -2.042790    0.242601
    7.O         0.001333   -5.282127    1.172283
    8.Mo        3.322988    2.049025    0.080794
    9.O         1.948555   -1.644052   -1.486261
   10.Mo        2.520792   -1.433367    0.427985
   11.O        -3.768727    2.419062    1.060345
   12.Mo       -2.604915    1.647894   -0.013927
   13.O         1.672334    2.764693    0.459355
   14.O         0.584246    3.822371   -1.910150
   15.O        -2.081587   -3.945734   -0.179356
   16.O         1.552137   -3.011200    0.776041
   17.O         3.220116    0.333563   -0.580486
   18.O        -3.997464   -2.558503    1.368209
   19.O         4.303876    2.105184    1.547100
   20.O         4.119630    3.026180   -1.150911
   21.O        -1.960598    3.548542   -0.720744
   22.O         0.434983   -4.108264   -1.475521
   23.O        -3.387731   -1.861993   -1.384967
   24.O        -3.288813    1.328595   -1.602287
   25.O        -0.846809   -2.060948    0.753752
   26.O         1.924705   -0.374505    1.694629
   27.O        -0.694138    1.722501    0.339016
   28.H         1.470580   -2.506358   -1.579352
 <Mar17-2023> <21:48:11>  >>>> CORORT
 <Mar17-2023> <21:48:11>  >>>> CLSMAT
 <Mar17-2023> <21:48:11>  >>>> ORTHON
 <Mar17-2023> <21:48:11>  >>>> GENPT
 <Mar17-2023> <21:48:11>  Block Length= 128
 <Mar17-2023> <21:48:11>  >>>> PTBAS
 <Mar17-2023> <21:48:13>  combining surface points...
 <Mar17-2023> <21:48:13>  combining surface points...
 <Mar17-2023> <21:48:13>  combining surface points...
 <Mar17-2023> <21:48:13>  >>>> CYCLE
 <Mar17-2023> <21:48:17>              |Error|         MaxErr       Wt(A-DIIS)
 <Mar17-2023> <21:48:17>      1      0.15218205      0.01123582
 <Mar17-2023> <21:48:19>      2      0.59659271      0.05065257    100.0
 <Mar17-2023> <21:48:22>      3      0.16816814      0.01302068    100.0
 <Mar17-2023> <21:48:24>      4      0.14890648      0.01322738     12.4
 <Mar17-2023> <21:48:27>      5      0.30826710      0.03582696    100.0
 <Mar17-2023> <21:48:29>      6      0.22732186      0.02451730    100.0
 <Mar17-2023> <21:48:32>      7      0.10420080      0.01551342     14.7
 <Mar17-2023> <21:48:34>      8      0.04622884      0.00622179      5.3
 <Mar17-2023> <21:48:36>      9      0.01703428      0.00273405      1.8
 <Mar17-2023> <21:48:39>     10      0.00892159      0.00187280      0.9
 <Mar17-2023> <21:48:41>     11      0.00201005      0.00024548      0.0
 <Mar17-2023> <21:48:44>     12      0.00153709      0.00017755      0.0
 <Mar17-2023> <21:48:46>     13      0.00098731      0.00018175      0.0
 <Mar17-2023> <21:48:48>     14      0.00029863      0.00004172      0.0
 <Mar17-2023> <21:48:51>     15      0.00017208      0.00001904      0.0
 <Mar17-2023> <21:48:53>     16      0.00006877      0.00001066      0.0
 <Mar17-2023> <21:48:55>     17      0.00009498      0.00001249      0.0
 <Mar17-2023> <21:48:57>     18      0.00001426      0.00000199      0.0
 <Mar17-2023> <21:48:59>     19      0.00002872      0.00000338      0.0
 <Mar17-2023> <21:49:02>     20      0.00002115      0.00000302      0.0
 <Mar17-2023> <21:49:04>     21      0.00001514      0.00000350      0.0
 <Mar17-2023> <21:49:06>     22      0.00000258      0.00000033      0.0
 <Mar17-2023> <21:49:06>  SCF converged
 <Mar17-2023> <21:49:08>     23      0.00000163      0.00000016      0.0
 <Mar17-2023> <21:49:09>  >>>> TOTEN
 <Mar17-2023> <21:49:10>  >>>> POPAN
 <Mar17-2023> <21:49:10>  >>>> DEBYE
 <Mar17-2023> <21:49:10>  >>>> ENGRAD
 <Mar17-2023> <21:49:21>  Geometry symmetry displacement    2 out of    2
  Coordinates in Geometry Cycle 101
    Atom         X           Y           Z   (Angstrom)
    1.O         4.154427   -1.944842    0.822259
    2.Mo       -0.126779    3.536405   -0.326373
    3.O        -2.688850   -0.144180    0.692097
    4.Mo       -0.206255   -3.856541    0.160193
    5.O         0.022765    4.980846    0.672761
    6.Mo       -2.747396   -2.042815    0.243001
    7.O         0.001593   -5.282188    1.172272
    8.Mo        3.322704    2.049158    0.081173
    9.O         1.947849   -1.643795   -1.486665
   10.Mo        2.520476   -1.433169    0.427482
   11.O        -3.769242    2.419097    1.059026
   12.Mo       -2.604610    1.647744   -0.014216
   13.O         1.672364    2.765153    0.460666
   14.O         0.585204    3.821345   -1.909882
   15.O        -2.081688   -3.945850   -0.178860
   16.O         1.552231   -3.011231    0.775620
   17.O         3.219128    0.334058   -0.580948
   18.O        -3.997280   -2.558388    1.368846
   19.O         4.304097    2.104330    1.547167
   20.O         4.119221    3.026696   -1.150303
   21.O        -1.960138    3.548224   -0.721391
   22.O         0.434570   -4.108382   -1.475662
   23.O        -3.387919   -1.862192   -1.384499
   24.O        -3.287439    1.327837   -1.602912
   25.O        -0.846704   -2.060988    0.753805
   26.O         1.924517   -0.374573    1.694404
   27.O        -0.694108    1.722873    0.340059
   28.H         1.470013   -2.506177   -1.579712
 <Mar17-2023> <21:49:21>  >>>> CORORT
 <Mar17-2023> <21:49:21>  >>>> CLSMAT
 <Mar17-2023> <21:49:21>  >>>> ORTHON
 <Mar17-2023> <21:49:21>  >>>> GENPT
 <Mar17-2023> <21:49:21>  Block Length= 128
 <Mar17-2023> <21:49:21>  >>>> PTBAS
 <Mar17-2023> <21:49:23>  combining surface points...
 <Mar17-2023> <21:49:23>  combining surface points...
 <Mar17-2023> <21:49:23>  combining surface points...
 <Mar17-2023> <21:49:23>  >>>> CYCLE
 <Mar17-2023> <21:49:27>              |Error|         MaxErr       Wt(A-DIIS)
 <Mar17-2023> <21:49:27>      1      0.15229025      0.01124485
 <Mar17-2023> <21:49:29>      2      0.59665090      0.05059881    100.0
 <Mar17-2023> <21:49:32>      3      0.16824189      0.01303293    100.0
 <Mar17-2023> <21:49:34>      4      0.14929898      0.01326937     12.4
 <Mar17-2023> <21:49:37>      5      0.30860622      0.03581959    100.0
 <Mar17-2023> <21:49:39>      6      0.22858119      0.02474297    100.0
 <Mar17-2023> <21:49:42>      7      0.10387208      0.01548936     14.6
 <Mar17-2023> <21:49:44>      8      0.04631688      0.00625281      5.3
 <Mar17-2023> <21:49:47>      9      0.01704761      0.00274489      1.8
 <Mar17-2023> <21:49:49>     10      0.00893397      0.00187418      0.9
 <Mar17-2023> <21:49:51>     11      0.00200958      0.00024530      0.0
 <Mar17-2023> <21:49:54>     12      0.00153843      0.00017757      0.0
 <Mar17-2023> <21:49:56>     13      0.00098553      0.00018169      0.0
 <Mar17-2023> <21:49:59>     14      0.00029901      0.00004191      0.0
 <Mar17-2023> <21:50:01>     15      0.00017263      0.00001914      0.0
 <Mar17-2023> <21:50:03>     16      0.00006869      0.00001063      0.0
 <Mar17-2023> <21:50:05>     17      0.00009664      0.00001273      0.0
 <Mar17-2023> <21:50:07>     18      0.00001433      0.00000199      0.0
 <Mar17-2023> <21:50:10>     19      0.00002881      0.00000338      0.0
 <Mar17-2023> <21:50:12>     20      0.00002124      0.00000304      0.0
 <Mar17-2023> <21:50:14>     21      0.00001521      0.00000352      0.0
 <Mar17-2023> <21:50:16>     22      0.00000260      0.00000034      0.0
 <Mar17-2023> <21:50:17>  SCF converged
 <Mar17-2023> <21:50:18>     23      0.00000163      0.00000016      0.0
 <Mar17-2023> <21:50:19>  >>>> TOTEN
 <Mar17-2023> <21:50:20>  >>>> POPAN
 <Mar17-2023> <21:50:20>  >>>> DEBYE
 <Mar17-2023> <21:50:20>  >>>> ENGRAD
 <Mar17-2023> <21:50:31>  Old frequency:     -6.63556, new:     23.44818
 <Mar17-2023> <21:50:31>  NOTE: Some frequencies have been re-calculated by numerical differentiation
 <Mar17-2023> <21:50:31>        Check the text output file for new values!
 <Mar17-2023> <21:50:31>  NORMAL TERMINATION
 <Mar17-2023> <21:50:31>  END
