
 *******************************************************************************
 *                                                                             *
 *  -------------------------------------                                      *
 *   Amsterdam Density Functional  (ADF)         2019                          *
 *  -------------------------------------                                      *
 *                                               r74351 2019-04-25             *
 *                                                                             *
 *                                                                             *
 *                            =====================                            *
 *                            |                   |                            *
 *                            |     D I R A C     |                            *
 *                            |                   |                            *
 *                            =====================                            *
 *                                                                             *
 *                                                                             *
 *   Online information and documentation:  https://www.scm.com/support/       *
 *   E-mail:  support@scm.com   info@scm.com                                   *
 *                                                                             *
 *   Scientific publications using ADF results must be properly referenced     *
 *   See the User Manuals (or the web site) for recommended citations          *
 *   The terms and conditions of the End User License Agreement apply to       *
 *   the use of ADF, https://www.scm.com/license-terms/                        *
 *                                                                             *
 **********************  x86_64_linux_intel / intelmpi  ************************
 
  
 DIRAC 2019  RunTime: Mar13-2023 16:13:00  Nodes: 1  Procs: 1

 Temporary files are created in /scratch/kid_0.583421488

1
 HYDROGEN ATOM RELATIVISTIC, Point Nuc, A and c from libtc   
 N J RN H ZN XION ANUC CLIGHT
 5000    1100.00000000197.36710137  1.00000000  0.00000000    1.007825  0.1370360E+03
  PH   PHI     EPS        DEL        DELRVR
  0.30  0.30     2500.00  0.00001000  0.00001000
 IDIRC  NC1  NDEBU NPRIN  IPUN IRCOR IWCOR
   1   300     0     0     0     0     0
   XALPHA      XLATTER      RNUC
  0.70000000  0.00000000  0.00000000 Point Charge
   XN   XL   XJ      XE          XZ      XDELL
  1.0  0.0  0.5      -1.000       1.000     0.00000
 ICORP=  0  NPCL=  0  DEMP=0.00  PEPS=0.000000
 R(1)=  0.1000000E-08 D=  0.1005080E+01 RNUC=  0.0000000E+00
 converged at cycle   32  DENSITY AVERAGING    0.2400
  MAXIMUM ERROR IN R.V(R) IS   0.79874357E-05
 Q,EY,EV,EZ,ESUM,ETOT,RHO  0.100000E+01 -0.266614E+00 -0.619969E+00 -0.910779E+00 -0.203940E+00 -0.415998E+00  0.337036E-17


 DIRAC CALCULATION
1                    HYDROGEN ATOM RELATIVISTIC, Point Nuc, A and c from libtc


 EXCHANGE COEFFICIENT=  0.7000000           TAIL CORRECTION=  0.           NUCLEAR RADIUS=  0.000E+00
0                       ORBITAL    N    L    J     ELECTRONS     EIGENVALUE                DELTA OF EIGENV.

                          1S1/2  1.0  0.0  0.5     1.000       -0.2039397E+00                 0.2720093E-06


                                        NUCLEAR CHARGE=    1.000000
                            INTEGRAL OF CHARGE DENSITY=    1.000000
                           SUM OF THE ORBITAL ENERGIES=     -0.2039
                                          TOTAL ENERGY=     -0.4160
                                        KINETIC ENERGY=      0.4160
                             NUCLEAR ATTRACTION ENERGY=     -0.9108
                             ELECTRON REPULSION ENERGY=      0.2787
                                       EXCHANGE ENERGY=     -0.2000

 *******************************************************************************

                             D I R A C   E X I T
 NORMAL TERMINATION



 =================
 Timing Statistics
 =================
  
 Total Used :                     CPU=        0.06      System=        0.00     Elapsed=        0.06

 Calls  Section                     ( Mean, Percentage )
 ---------------------------------------------------------------------------------------------------
     2  ><      ................      0.00    0.00             0.00    0.00             0.00    0.01
     1  EXIT PROCEDURE .........      0.06  100.00             0.00    0.00             0.06   99.99


 Currently Open Files (EXIT00)
 ====================

 Unit    Access Format  Status   Type       Ident (file)
 -------------------------------------------------------
   3      SEQ    FORM   TRANSP  NORMAL      LOGFILE
                                          ( logfile )
 
Create H   file=TZP-H
XC
  GGA PBE
End
relativistic ZORA
Corepotentials t12.rel
End

 *******************************************************************************
 *                                                                             *
 *  -------------------------------------                                      *
 *   Amsterdam Density Functional  (ADF)         2019                          *
 *  -------------------------------------                                      *
 *                                               r74351 2019-04-25             *
 *                                                                             *
 *                                                                             *
 *                              =================                              *
 *                              |               |                              *
 *                              |     A D F     |                              *
 *                              |               |                              *
 *                              =================                              *
 *                                                                             *
 *                                                                             *
 *   Online information and documentation:  https://www.scm.com/support/       *
 *   E-mail:  support@scm.com   info@scm.com                                   *
 *                                                                             *
 *   Scientific publications using ADF results must be properly referenced     *
 *   See the User Manuals (or the web site) for recommended citations          *
 *   The terms and conditions of the End User License Agreement apply to       *
 *   the use of ADF, https://www.scm.com/license-terms/                        *
 *                                                                             *
 **********************  x86_64_linux_intel / intelmpi  ************************
 
  
 ADF 2019  RunTime: Mar13-2023 16:13:00  Nodes: 1  Procs: 1

 Temporary files are created in /scratch/kid_0.835831953

 Hydrogen (TZP)



 ===========================
 A T T A C H E D   F I L E S
 ===========================
  
 CREATE - Data File:    TZP-H
                        Hydrogen (TZP)
 Core Potentials:
         file : t12.rel



 ===============================
 M O D E L   P A R A M E T E R S
 ===============================
  
 DENSITY FUNCTIONAL POTENTIAL (scf)
    LDA:                               PW92                                    == Not Default ==
    Gradient Corrections:              PBEc PBEx                               == Not Default ==

 SPIN  (restricted / unrestr.)
    Molecule:                          Restricted                               

 OTHER ASPECTS
    Relativistic Corrections:          scalar (ZORA,MAPA)                      == Not Default ==

    Nuclear Charge Density Model:      Point Charge Nuclei                      
    Core Treatment:                    Frozen Orbital(s)                        

    Hyperfine or Zeeman Interaction:   ---                                      



 =====================================
 S Y M M E T R Y ,   E L E C T R O N S
 =====================================
  
 Symmetry: ATOM

 Irreducible Representations, including subspecies
 -------------------------------------------------
 S
 P:x  P:y  P:z
 D:z2  D:x2-y2  D:xy  D:xz  D:yz
 F:z3  F:z  F:xyz  F:z2x  F:z2y  F:x  F:y


 Configuration of Valence Electrons
 ==================================

          Occupation Numbers
          -------------------------------------------------
 S        1
 P        0
 D        0
 F        0
          -------------------------------------------------

 Total:   1

 Net Charge: 0 (Nuclei minus Electrons)

 Preset values for MO occupations will be applied through SCF cycle no. 1000000
 Thereafter, the program will assign electrons to MOs that are spatially
 similar to the occupied MOs in a "reference" cycle ("KeepOrbitals").
 The reference cycle is always the PREVIOUS cycle: it will evolve with
 the SCF procedure.



 ================================
 (Slater-type)  F U N C T I O N S  ***  (Basis and Fit)  ***
 ================================
  

 Atom Type    1  (H)
 ==============

 Valence Basis Sets:   4
 -----------------------
   1 S    0.690000
   1 S    0.920000
   1 S    1.580000
   2 P    1.250000


 BAS: List of all Elementary Cartesian Basis Functions
 =====================================================

 The numbering in the list below (to the right of the function characteristics) is referred
 to in print-outs of MO eigenvectors and Mulliken populations in the BAS representation
 (as contrasted to the SFO representation).

 Notes:
 1. The functions are characterized by a polynomial prefactor (powers of x,y,z and r) and
    an exponential decay factor alpha.
 2. Since the basis sets are specific for an atom TYPE, the individual functions occur on
    all atoms of that type.
 3. The word 'Core' in the left margin signals that it is a Core Function (CF) : not a
    degree of freedom in the valence set, but only used to ensure orthogonalization of
    the other valence basis functions on the frozen Core Orbitals.


 (power of) X  Y  Z  R     Alpha  on Atom
            ==========     =====     ==========

 H                                    1
                                  ---------------------------------------------------------------------------
            0  0  0  0     0.690      1
            0  0  0  0     0.920      2
            0  0  0  0     1.580      3
            1  0  0  0     1.250      4
            0  1  0  0     1.250      5
            0  0  1  0     1.250      6

 Total number of charge fitting functions (nprimf)        50
 Total number of Cartesian basis functions (naos)          6
 Total number of Cartesian core functions  (ncos)          0



 BAS: List of all Elementary Cartesian Basis Functions
 =====================================================

 The numbering in the list below (to the right of the function characteristics) is referred
 to in print-outs of MO eigenvectors and Mulliken populations in the BAS representation
 (as contrasted to the SFO representation).

 Notes:
 1. The functions are characterized by a polynomial prefactor (powers of x,y,z and r) and
    an exponential decay factor alpha.
 2. Since the basis sets are specific for an atom TYPE, the individual functions occur on
    all atoms of that type.
 3. The word 'Core' in the left margin signals that it is a Core Function (CF) : not a
    degree of freedom in the valence set, but only used to ensure orthogonalization of
    the other valence basis functions on the frozen Core Orbitals.


 (power of) X  Y  Z  R     Alpha  on Atom
            ==========     =====     ==========

 H                                    1
                                  ---------------------------------------------------------------------------
            0  0  0  0     0.690      1
            0  0  0  0     0.920      2
            0  0  0  0     1.580      3
            1  0  0  0     1.250      4
            0  1  0  0     1.250      5
            0  0  1  0     1.250      6
1
 ***************************************************************************************************



                                              ***********************
                                              *  T E C H N I C A L  *
                                              ***********************
  



 =============================================================
 P A R A L L E L I Z A T I O N  and  V E C T O R I Z A T I O N
 =============================================================
  
 Nr of parallel processes:                                1
 Maximum vector length in NumInt loops:                 128



 =====================
 S C F   U P D A T E S
 =====================
  
 Max. nr. of cycles:                               300
 Convergence criterion:                              0.0000000100
   secondary criterion:                              0.0000000100

 Mix parameter (when DIIS does not apply):           0.2000000000
 Special mix parameter for the first cycle:          1.0000000000
 Mixed ADIIS+SDIIS will be used                  
    Max number of expansion vectors:                10
    Pure ADIIS when Max([F,P]) is above              0.1000000000
    Pure SDIIS when Max([F,P]) is below              0.0010000000
 Automatic ElectronSmearing (in case of problematic SCF convergence) disabled



 =================
 P R E C I S I O N  ***  (General: NumInt, NeglectFunctionTails, ...)  ***
 =================
  

 NumInt:           Target precision:                12.0000000000
 -------           Initial precision:               10.0000000000
                   Min. precision (optimization):   10.0000000000

 Neglect Functions:          Basis functions:        0.1000000000E-13
 ------------------          Fit functions:          0.1000000000E-13



 ===========================
 L I N E A R   S C A L I N G
 ===========================
  

 Cut-off radii density fit:                        0.1000000000E-97
 Overlap cut-off criterion AO matrix elements:     0.1000000000E-97
 Cut-offs for Coulomb potential and fitted density:0.1000000000E-97
 Cut-off criterion for Coulomb multipole terms:    0.1000000000E-97
 Progressive Convergence parameter:                 0.000000000    
1
 ***************************************************************************************************



                                            ***************************
                                            *  C O M P U T A T I O N  *
                                            ***************************
  

 Number of elements of the density matrix on this node (used, total):        21        21



 ===========================================
 Numerical Integration : Fuzzy Cells (Becke)
 ===========================================
  
 Becke grid quality: VERYGOOD       
  
 Lebedev angular grid order:             min:  13 max:  41
 Nr. of radial points:                   min:  64 max:  64

 Total nr. of points:         64
 Nr. of blocks:                1
 Block length:                64
 Nr. of dummy points:          0


 Test of Precision of the Numerical Integration Grid
 ===================================================

 Integral of the Total Core Density:                   0.00000000000000



 ========================
 Density Fitting (zlmFit)
 ========================
  
 ZlmFit Fit Quality: VERYGOOD       
  
 Max L-expansion:                        min:   0 max:   0
 Nr. of radial interpolation points:     min: 120 max: 120



 =====
 S C F  ***  ScaSCF  ***
 =====
  

 CYCLE    1
 SCF Error: norm([F,P])=      0.000000000000, max([F,P])=      0.000000000000
 orbitals (Q,E):
 ---------------
 S :1...3            ( 1.00    -0.5000)  ( 0.00    -0.0900)  ( 0.00     1.2936)
 P :1...1            ( 0.00     0.1562)

 CYCLE    2
 SCF Error: norm([F,P])=      0.031537872292, max([F,P])=      0.030110494752
 orbitals (Q,E):
 ---------------
 S :1...2            ( 1.00    -0.2218)  ( 0.00     0.1019)
 P :1...1            ( 0.00     0.4189)

 CYCLE    3
  SDIIS (wt  0.000):  0.1996  0.8004
 A-DIIS (wt  1.000):  0.0000  1.0000
  DIIS coefficients:  0.0000  1.0000
 SCF Error: norm([F,P])=      0.008617989401, max([F,P])=      0.008343029399
 orbitals (Q,E):
 ---------------
 S :1...2            ( 1.00    -0.2422)  ( 0.00     0.0889)
 P :1...1            ( 0.00     0.4024)

 CYCLE    4
  SDIIS (wt  0.993):  0.1666  0.8334
 A-DIIS (wt  0.007):  0.0000  1.0000
  DIIS coefficients:  0.1654  0.8346
 SCF Error: norm([F,P])=      0.001732350026, max([F,P])=      0.001718616814
 orbitals (Q,E):
 ---------------
 S :1...2            ( 1.00    -0.2385)  ( 0.00     0.0908)
 P :1...1            ( 0.00     0.4054)

 CYCLE    5
  SDIIS (wt  1.000):  0.0236  0.9764
  DIIS coefficients:  0.0236  0.9764
 SCF Error: norm([F,P])=      0.000043673449, max([F,P])=      0.000039769875
 orbitals (Q,E):
 ---------------
 S :1...2            ( 1.00    -0.2386)  ( 0.00     0.0908)
 P :1...1            ( 0.00     0.4054)

 CYCLE    6
  SDIIS (wt  1.000): -0.0577  1.0577
  DIIS coefficients: -0.0577  1.0577
 SCF Error: norm([F,P])=      0.000002383805, max([F,P])=      0.000002158128
 orbitals (Q,E):
 ---------------
 S :1...2            ( 1.00    -0.2386)  ( 0.00     0.0908)
 P :1...1            ( 0.00     0.4054)

 CYCLE    7
  SDIIS (wt  1.000): -0.0032  1.0032
  DIIS coefficients: -0.0032  1.0032
 SCF Error: norm([F,P])=      0.000000007721, max([F,P])=      0.000000007228
 orbitals (Q,E):
 ---------------
 S :1...2            ( 1.00    -0.2386)  ( 0.00     0.0908)
 P :1...1            ( 0.00     0.4054)

 SCF CONVERGED

 CYCLE    8
1
 ***************************************************************************************************



                                                *******************
                                                *  R E S U L T S  *
                                                *******************
  
 *** Using FIT density in Focky
  SDIIS (wt  1.000):  0.0192  0.9808
  DIIS coefficients:  0.0192  0.9808
 SCF Error: norm([F,P])=      0.000000000151, max([F,P])=      0.000000000141

 Scaled ZORA Orbital Energies, per Irrep and Spin:
 =================================================
                        Occup              E (au)              E (eV)       Diff (eV) with prev. cycle
                        -----      --------------------        ------       --------------------------
 S
               1        1.000     -0.23861775226993E+00        -6.493               7.43E-09
               2        0.000      0.90791701709251E-01         2.471
               3        0.000      0.15217530108908E+01        41.409
 P
               1        0.000      0.40537978060393E+00        11.031


 Partially Occupied:
               1 S                -0.23861775226993E+00
  
 LUMO :        2 S                 0.90791701709251E-01
  


 Orbital Energies, all Irreps
 ========================================

 Irrep        no.  (spin)   Occup              E (au)                E (eV)
 ---------------------------------------------------------------------------
 S             1             1.00       -0.23861775226993E+00        -6.4931
 S             2             0.00        0.90791701709251E-01         2.4706
 P             1             0.00        0.40537978060393E+00        11.0309
 S             3             0.00        0.15217530108908E+01        41.4090


 All Electron Calculation, thus no Orbital Energies of the Core Orbitals are calculated



 =======================================
 M U L L I K E N   P O P U L A T I O N S
 =======================================
  
 The survey below gives for each atom:
 a) the total charge (Z minus electrons)
 b) the net spin polarization (nr of electrons spin-A minus spin-B)
 c) for each spin the atomic electron valence density (integrated) per L-value.

 Atom              Charge    Spin density          S         P         D         F
 ----              ------    ------------       ------    ------    ------    ------
 1 H              -0.0000                       1.0000    0.0000    0.0000    0.0000

 Populations of individual BAS functions
 ----------------------------------------
 1 H            0.2104  0.6788  0.1107  0.0000  0.0000  0.0000

 Gross Charges per Atom (Z minus electrons)
 ==========================================
            -0.0000
 Net Total: -0.00000000



 =======================================================================
 Electrostatic potential at the Nuclei due to electrons and other nuclei
 =======================================================================
  
         Atom                  Potential
         ----                  ---------
     1)   H                   0.94468022
 
 
 ========================
 No memory problems found
 ========================
 
 Maximum number of active allocate calls:         306
 
 *******************************************************************************

                             A D F   E X I T
 NORMAL TERMINATION



 =================
 Timing Statistics
 =================
  
 Total Used :                     CPU=        0.31      System=        0.03     Elapsed=        0.37

 Calls  Section                     ( Mean, Percentage )
 ---------------------------------------------------------------------------------------------------
     3  ><      ................      0.00    0.00             0.00   12.50             0.00    1.19
     1  INIT    ................      0.06   19.23             0.01   25.00             0.07   19.78
     1  GEOMET  ................      0.02    5.13             0.00   12.50             0.02    6.36
     1  INPUTA  ................      0.00    0.00             0.00    0.00             0.00    0.90
     1  MAINSY  ................      0.01    2.56             0.00   12.50             0.01    3.42
     1  SYMFIT  ................      0.00    0.00             0.00    0.00             0.00    0.44
     1  CORORT  ................      0.00    0.00             0.00    0.00             0.00    0.33
     1  SYMORB  ................      0.00    0.00             0.00   12.50             0.00    0.19
     1  CLSMAT  ................      0.00    1.28             0.00    0.00             0.00    1.31
     1  ORTHON  ................      0.00    1.28             0.00    0.00             0.00    1.27
     1  GENPT   ................      0.01    2.56             0.00    0.00             0.01    3.16
     1  PTBAS   ................      0.01    2.56             0.00    0.00             0.00    1.29
     8  FOCKY   ................      0.02   46.15             0.00   25.00             0.02   44.91
     8  FOCKTR  ................      0.00    5.13             0.00    0.00             0.00    1.12
     8  SDIIS   ................      0.00    3.85             0.00    0.00             0.00    5.50
     1  COREPS  ................      0.01    3.85             0.00    0.00             0.01    3.69
     1  POPAN   ................      0.00    1.28             0.00    0.00             0.00    1.18
     1  DEBYE   ................      0.00    1.28             0.00    0.00             0.00    0.50
     1  EXIT PROCEDURE .........      0.01    3.85             0.00    0.00             0.01    3.46


 Currently Open Files (EXIT00)
 ====================

 Unit    Access Format  Status   Type       Ident (file)
 -------------------------------------------------------
   3      SEQ    FORM   TRANSP  NORMAL      LOGFILE
                                          ( logfile )

 ***************************************************************************************************
 (LOGFILE)
  Coordinates
    Atom         X           Y           Z   (Angstrom)
    1.H         0.000000    0.000000    0.000000

 *******************************************************************************
 *                                                                             *
 *  -------------------------------------                                      *
 *   Amsterdam Density Functional  (ADF)         2019                          *
 *  -------------------------------------                                      *
 *                                               r74351 2019-04-25             *
 *                                                                             *
 *                                                                             *
 *                            =====================                            *
 *                            |                   |                            *
 *                            |     D I R A C     |                            *
 *                            |                   |                            *
 *                            =====================                            *
 *                                                                             *
 *                                                                             *
 *   Online information and documentation:  https://www.scm.com/support/       *
 *   E-mail:  support@scm.com   info@scm.com                                   *
 *                                                                             *
 *   Scientific publications using ADF results must be properly referenced     *
 *   See the User Manuals (or the web site) for recommended citations          *
 *   The terms and conditions of the End User License Agreement apply to       *
 *   the use of ADF, https://www.scm.com/license-terms/                        *
 *                                                                             *
 **********************  x86_64_linux_intel / intelmpi  ************************
 
  
 DIRAC 2019  RunTime: Mar13-2023 16:13:01  Nodes: 1  Procs: 1

 Temporary files are created in /scratch/kid_0.1595660648

1
 MOLYBDENUM ATOM 3d CORE RELATIVISTIC, Point Nuc, A and c fro
 N J RN H ZN XION ANUC CLIGHT
 5000   15100.00000000197.36710137 42.00000000  0.00000000   97.905406  0.1370360E+03
  PH   PHI     EPS        DEL        DELRVR
  0.30  0.30     2500.00  0.00001000  0.00001000
 IDIRC  NC1  NDEBU NPRIN  IPUN IRCOR IWCOR
   1   300     0     0     0     0     9
   XALPHA      XLATTER      RNUC
  0.70000000  0.00000000  0.00000000 Point Charge
   XN   XL   XJ      XE          XZ      XDELL
  1.0  0.0  0.5   -1500.000       2.000     0.00000
  2.0  0.0  0.5    -325.000       2.000     0.00000
  2.0  1.0  0.5    -325.000       2.000     0.00000
  2.0  1.0  1.5    -325.000       4.000     0.00000
  3.0  0.0  0.5     -70.000       2.000     0.00000
  3.0  1.0  0.5     -70.000       2.000     0.00000
  3.0  1.0  1.5     -70.000       4.000     0.00000
  3.0  2.0  1.5     -60.000       4.000     0.00000
  3.0  2.0  2.5     -60.000       6.000     0.00000
  4.0  0.0  0.5     -10.000       2.000     0.00000
  4.0  1.0  0.5     -10.000       2.000     0.00000
  4.0  1.0  1.5     -10.000       4.000     0.00000
  4.0  2.0  1.5      -1.000       4.000     0.00000
  4.0  2.0  2.5      -1.000       1.000     0.00000
  5.0  0.0  0.5      -0.500       1.000     0.00000
 ICORP=  0  NPCL=  0  DEMP=0.00  PEPS=0.000000
 R(1)=  0.1000000E-08 D=  0.1005080E+01 RNUC=  0.0000000E+00
 converged at cycle   41  DENSITY AVERAGING    0.2400
  MAXIMUM ERROR IN R.V(R) IS   0.93203452E-05
 Q,EY,EV,EZ,ESUM,ETOT,RHO  0.420000E+02 -0.161898E+03 -0.662509E+04 -0.978397E+04 -0.242700E+04 -0.404691E+04  0.342495E-11


 DIRAC CALCULATION
1                    MOLYBDENUM ATOM 3d CORE RELATIVISTIC, Point Nuc, A and c from libtc


 EXCHANGE COEFFICIENT=  0.7000000           TAIL CORRECTION=  0.           NUCLEAR RADIUS=  0.000E+00
0                       ORBITAL    N    L    J     ELECTRONS     EIGENVALUE                DELTA OF EIGENV.

                          1S1/2  1.0  0.0  0.5     2.000       -0.7276812E+03                 0.2822496E-04
                          2S1/2  2.0  0.0  0.5     2.000       -0.1028194E+03                 0.1725465E-04
                          2P1/2  2.0  1.0  0.5     2.000       -0.9468016E+02                 0.1864325E-04
                          2P3/2  2.0  1.0  1.5     4.000       -0.9076266E+02                 0.1832345E-04
                          3S1/2  3.0  0.0  0.5     2.000       -0.1747094E+02                 0.5979346E-05
                          3P1/2  3.0  1.0  0.5     2.000       -0.1436574E+02                 0.6275079E-05
                          3P3/2  3.0  1.0  1.5     4.000       -0.1371946E+02                 0.5984426E-05
                          3D3/2  3.0  2.0  1.5     4.000       -0.8203697E+01                 0.6709395E-05
                          3D5/2  3.0  2.0  2.5     6.000       -0.8081013E+01                 0.6610438E-05
                          4S1/2  4.0  0.0  0.5     2.000       -0.2338238E+01                 0.2446887E-06
                          4P1/2  4.0  1.0  0.5     2.000       -0.1452045E+01                 0.2971982E-06
                          4P3/2  4.0  1.0  1.5     4.000       -0.1358936E+01                 0.3186552E-06
                          4D3/2  4.0  2.0  1.5     4.000       -0.1184046E+00                 0.3378248E-06
                          4D5/2  4.0  2.0  2.5     1.000       -0.1108976E+00                 0.3342679E-06
                          5S1/2  5.0  0.0  0.5     1.000       -0.1320069E+00                 0.9757102E-07


                                        NUCLEAR CHARGE=   42.000000
                            INTEGRAL OF CHARGE DENSITY=   42.000000
                           SUM OF THE ORBITAL ENERGIES=  -2426.9970
                                          TOTAL ENERGY=  -4046.9128
                                        KINETIC ENERGY=   4198.0886
                             NUCLEAR ATTRACTION ENERGY=  -9783.9685
                             ELECTRON REPULSION ENERGY=   1660.3903
                                       EXCHANGE ENERGY=   -121.4232

 *******************************************************************************

                             D I R A C   E X I T
 NORMAL TERMINATION



 =================
 Timing Statistics
 =================
  
 Total Used :                     CPU=        0.36      System=        0.01     Elapsed=        0.37

 Calls  Section                     ( Mean, Percentage )
 ---------------------------------------------------------------------------------------------------
     2  ><      ................      0.00    0.00             0.00    0.00             0.00    0.00
     1  EXIT PROCEDURE .........      0.36  100.00             0.01  100.00             0.37  100.00


 Currently Open Files (EXIT00)
 ====================

 Unit    Access Format  Status   Type       Ident (file)
 -------------------------------------------------------
   3      SEQ    FORM   TRANSP  NORMAL      LOGFILE
                                          ( logfile )
 
Create Mo   file=TZP-Mo.3d
XC
  GGA PBE
End
relativistic ZORA
Corepotentials t12.rel
End

 *******************************************************************************
 *                                                                             *
 *  -------------------------------------                                      *
 *   Amsterdam Density Functional  (ADF)         2019                          *
 *  -------------------------------------                                      *
 *                                               r74351 2019-04-25             *
 *                                                                             *
 *                                                                             *
 *                              =================                              *
 *                              |               |                              *
 *                              |     A D F     |                              *
 *                              |               |                              *
 *                              =================                              *
 *                                                                             *
 *                                                                             *
 *   Online information and documentation:  https://www.scm.com/support/       *
 *   E-mail:  support@scm.com   info@scm.com                                   *
 *                                                                             *
 *   Scientific publications using ADF results must be properly referenced     *
 *   See the User Manuals (or the web site) for recommended citations          *
 *   The terms and conditions of the End User License Agreement apply to       *
 *   the use of ADF, https://www.scm.com/license-terms/                        *
 *                                                                             *
 **********************  x86_64_linux_intel / intelmpi  ************************
 
  
 ADF 2019  RunTime: Mar13-2023 16:13:01  Nodes: 1  Procs: 1

 Temporary files are created in /scratch/kid_0.149705632

 Molybdenum (TZP, 3d frozen)



 ===========================
 A T T A C H E D   F I L E S
 ===========================
  
 CREATE - Data File:    TZP-Mo.3d
                        Molybdenum (TZP, 3d frozen)
 Core Potentials:
         file : t12.rel



 ===============================
 M O D E L   P A R A M E T E R S
 ===============================
  
 DENSITY FUNCTIONAL POTENTIAL (scf)
    LDA:                               PW92                                    == Not Default ==
    Gradient Corrections:              PBEc PBEx                               == Not Default ==

 SPIN  (restricted / unrestr.)
    Molecule:                          Restricted                               

 OTHER ASPECTS
    Relativistic Corrections:          scalar (ZORA,MAPA)                      == Not Default ==

    Nuclear Charge Density Model:      Point Charge Nuclei                      
    Core Treatment:                    Frozen Orbital(s)                        

    Hyperfine or Zeeman Interaction:   ---                                      



 =====================================
 S Y M M E T R Y ,   E L E C T R O N S
 =====================================
  
 Symmetry: ATOM

 Irreducible Representations, including subspecies
 -------------------------------------------------
 S
 P:x  P:y  P:z
 D:z2  D:x2-y2  D:xy  D:xz  D:yz
 F:z3  F:z  F:xyz  F:z2x  F:z2y  F:x  F:y


 Configuration of Valence Electrons
 ==================================

          Occupation Numbers
          -------------------------------------------------
 S        2 1
 P        6
 D        5
 F        0
          -------------------------------------------------

 Total:   14

 Net Charge: 0 (Nuclei minus Electrons)

 Preset values for MO occupations will be applied through SCF cycle no. 1000000
 Thereafter, the program will assign electrons to MOs that are spatially
 similar to the occupied MOs in a "reference" cycle ("KeepOrbitals").
 The reference cycle is always the PREVIOUS cycle: it will evolve with
 the SCF procedure.



 ================================
 (Slater-type)  F U N C T I O N S  ***  (Basis and Fit)  ***
 ================================
  

 Atom Type    1  (Mo)
 ==============

 Valence Basis Sets:  18
 -----------------------
   1 S   30.500000
   2 S   17.750000
   3 S    8.350000
   2 P   18.600000
   3 P    8.700000
   3 D   10.050000
   4 S    5.100000
   4 S    3.300000
   5 S    2.150000
   5 S    1.350000
   5 S    0.870000
   4 P    4.950000
   4 P    3.300000
   4 P    2.300000
   4 D    3.500000
   4 D    1.850000
   4 D    0.970000
   5 P    1.350000

 Frozen Core Shells
 ------------------
    S:  3
    P:  2
    D:  1


 BAS: List of all Elementary Cartesian Basis Functions
 =====================================================

 The numbering in the list below (to the right of the function characteristics) is referred
 to in print-outs of MO eigenvectors and Mulliken populations in the BAS representation
 (as contrasted to the SFO representation).

 Notes:
 1. The functions are characterized by a polynomial prefactor (powers of x,y,z and r) and
    an exponential decay factor alpha.
 2. Since the basis sets are specific for an atom TYPE, the individual functions occur on
    all atoms of that type.
 3. The word 'Core' in the left margin signals that it is a Core Function (CF) : not a
    degree of freedom in the valence set, but only used to ensure orthogonalization of
    the other valence basis functions on the frozen Core Orbitals.


 (power of) X  Y  Z  R     Alpha  on Atom
            ==========     =====     ==========

 Mo                                   1
                                  ---------------------------------------------------------------------------
    Core    0  0  0  0    30.500      1
    Core    0  0  0  1    17.750      2
    Core    0  0  0  2     8.350      3
    Core    1  0  0  0    18.600      4
    Core    0  1  0  0    18.600      5
    Core    0  0  1  0    18.600      6
    Core    1  0  0  1     8.700      7
    Core    0  1  0  1     8.700      8
    Core    0  0  1  1     8.700      9
    Core    2  0  0  0    10.050     10
    Core    1  1  0  0    10.050     11
    Core    1  0  1  0    10.050     12
    Core    0  2  0  0    10.050     13
    Core    0  1  1  0    10.050     14
    Core    0  0  2  0    10.050     15
            0  0  0  3     5.100     16
            0  0  0  3     3.300     17
            0  0  0  4     2.150     18
            0  0  0  4     1.350     19
            0  0  0  4     0.870     20
            1  0  0  2     4.950     21
            0  1  0  2     4.950     22
            0  0  1  2     4.950     23
            1  0  0  2     3.300     24
            0  1  0  2     3.300     25
            0  0  1  2     3.300     26
            1  0  0  2     2.300     27
            0  1  0  2     2.300     28
            0  0  1  2     2.300     29
            2  0  0  1     3.500     30
            1  1  0  1     3.500     31
            1  0  1  1     3.500     32
            0  2  0  1     3.500     33
            0  1  1  1     3.500     34
            0  0  2  1     3.500     35
            2  0  0  1     1.850     36
            1  1  0  1     1.850     37
            1  0  1  1     1.850     38
            0  2  0  1     1.850     39
            0  1  1  1     1.850     40
            0  0  2  1     1.850     41
            2  0  0  1     0.970     42
            1  1  0  1     0.970     43
            1  0  1  1     0.970     44
            0  2  0  1     0.970     45
            0  1  1  1     0.970     46
            0  0  2  1     0.970     47
            1  0  0  3     1.350     48
            0  1  0  3     1.350     49
            0  0  1  3     1.350     50

 Total number of charge fitting functions (nprimf)       230
 Total number of Cartesian basis functions (naos)         50
 Total number of Cartesian core functions  (ncos)         15



 BAS: List of all Elementary Cartesian Basis Functions
 =====================================================

 The numbering in the list below (to the right of the function characteristics) is referred
 to in print-outs of MO eigenvectors and Mulliken populations in the BAS representation
 (as contrasted to the SFO representation).

 Notes:
 1. The functions are characterized by a polynomial prefactor (powers of x,y,z and r) and
    an exponential decay factor alpha.
 2. Since the basis sets are specific for an atom TYPE, the individual functions occur on
    all atoms of that type.
 3. The word 'Core' in the left margin signals that it is a Core Function (CF) : not a
    degree of freedom in the valence set, but only used to ensure orthogonalization of
    the other valence basis functions on the frozen Core Orbitals.


 (power of) X  Y  Z  R     Alpha  on Atom
            ==========     =====     ==========

 Mo                                   1
                                  ---------------------------------------------------------------------------
    Core    0  0  0  0    30.500      1
    Core    0  0  0  1    17.750      2
    Core    0  0  0  2     8.350      3
    Core    1  0  0  0    18.600      4
    Core    0  1  0  0    18.600      5
    Core    0  0  1  0    18.600      6
    Core    1  0  0  1     8.700      7
    Core    0  1  0  1     8.700      8
    Core    0  0  1  1     8.700      9
    Core    2  0  0  0    10.050     10
    Core    1  1  0  0    10.050     11
    Core    1  0  1  0    10.050     12
    Core    0  2  0  0    10.050     13
    Core    0  1  1  0    10.050     14
    Core    0  0  2  0    10.050     15
            0  0  0  3     5.100     16
            0  0  0  3     3.300     17
            0  0  0  4     2.150     18
            0  0  0  4     1.350     19
            0  0  0  4     0.870     20
            1  0  0  2     4.950     21
            0  1  0  2     4.950     22
            0  0  1  2     4.950     23
            1  0  0  2     3.300     24
            0  1  0  2     3.300     25
            0  0  1  2     3.300     26
            1  0  0  2     2.300     27
            0  1  0  2     2.300     28
            0  0  1  2     2.300     29
            2  0  0  1     3.500     30
            1  1  0  1     3.500     31
            1  0  1  1     3.500     32
            0  2  0  1     3.500     33
            0  1  1  1     3.500     34
            0  0  2  1     3.500     35
            2  0  0  1     1.850     36
            1  1  0  1     1.850     37
            1  0  1  1     1.850     38
            0  2  0  1     1.850     39
            0  1  1  1     1.850     40
            0  0  2  1     1.850     41
            2  0  0  1     0.970     42
            1  1  0  1     0.970     43
            1  0  1  1     0.970     44
            0  2  0  1     0.970     45
            0  1  1  1     0.970     46
            0  0  2  1     0.970     47
            1  0  0  3     1.350     48
            0  1  0  3     1.350     49
            0  0  1  3     1.350     50
1
 ***************************************************************************************************



                                              ***********************
                                              *  T E C H N I C A L  *
                                              ***********************
  



 =============================================================
 P A R A L L E L I Z A T I O N  and  V E C T O R I Z A T I O N
 =============================================================
  
 Nr of parallel processes:                                1
 Maximum vector length in NumInt loops:                 128



 =====================
 S C F   U P D A T E S
 =====================
  
 Max. nr. of cycles:                               300
 Convergence criterion:                              0.0000000100
   secondary criterion:                              0.0000000100

 Mix parameter (when DIIS does not apply):           0.2000000000
 Special mix parameter for the first cycle:          1.0000000000
 Mixed ADIIS+SDIIS will be used                  
    Max number of expansion vectors:                10
    Pure ADIIS when Max([F,P]) is above              0.1000000000
    Pure SDIIS when Max([F,P]) is below              0.0010000000
 Automatic ElectronSmearing (in case of problematic SCF convergence) disabled



 =================
 P R E C I S I O N  ***  (General: NumInt, NeglectFunctionTails, ...)  ***
 =================
  

 NumInt:           Target precision:                12.0000000000
 -------           Initial precision:               10.0000000000
                   Min. precision (optimization):   10.0000000000

 Neglect Functions:          Basis functions:        0.1000000000E-13
 ------------------          Fit functions:          0.1000000000E-13



 ===========================
 L I N E A R   S C A L I N G
 ===========================
  

 Cut-off radii density fit:                        0.1000000000E-97
 Overlap cut-off criterion AO matrix elements:     0.1000000000E-97
 Cut-offs for Coulomb potential and fitted density:0.1000000000E-97
 Cut-off criterion for Coulomb multipole terms:    0.1000000000E-97
 Progressive Convergence parameter:                 0.000000000    
1
 ***************************************************************************************************



                                            ***************************
                                            *  C O M P U T A T I O N  *
                                            ***************************
  

 Number of elements of the density matrix on this node (used, total):      1275      1275



 ===========================================
 Numerical Integration : Fuzzy Cells (Becke)
 ===========================================
  
 Becke grid quality: VERYGOOD       
  
 Lebedev angular grid order:             min:  13 max:  41
 Nr. of radial points:                   min: 106 max: 106

 Total nr. of points:        106
 Nr. of blocks:                1
 Block length:               106
 Nr. of dummy points:          0


 Test of Precision of the Numerical Integration Grid
 ===================================================

 Integral of the Total Core Density:                  28.00000000969493
 Relative Error:                                       3.462E-10



 ========================
 Density Fitting (zlmFit)
 ========================
  
 ZlmFit Fit Quality: VERYGOOD       
  
 Max L-expansion:                        min:   0 max:   0
 Nr. of radial interpolation points:     min: 230 max: 230



 =====
 S C F  ***  ScaSCF  ***
 =====
  

 CYCLE    1
 SCF Error: norm([F,P])=      0.000000000000, max([F,P])=      0.000000000000
 orbitals (Q,E):
 ---------------
 S :1...5            ( 2.00   -11.6814)  ( 1.00    -6.3532)  ( 0.00    -3.9976)  ( 0.00    -2.6589)
                     ( 0.00    -1.7000)
 P :1...4            ( 6.00   -10.5018)  ( 0.00    -5.8212)  ( 0.00    -3.6400)  ( 0.00    -2.5070)
 D :1...3            ( 5.00    -8.4786)  ( 0.00    -4.5701)  ( 0.00    -2.4939)

 CYCLE    2
  SDIIS (wt  0.000):  1.0000  0.0000
 A-DIIS (wt  1.000):  0.1286  0.8714
  DIIS coefficients:  0.1286  0.8714
 SCF Error: norm([F,P])=      7.148790686087, max([F,P])=      2.364314963741
 orbitals (Q,E):
 ---------------
 S :1...3            ( 2.00    -1.8793)  ( 1.00    -0.4080)  ( 0.00    -0.1761)
 P :1...2            ( 6.00    -1.0989)  ( 0.00    -0.2723)
 D :1...2            ( 5.00    -0.2758)  ( 0.00    -0.0263)

 CYCLE    3
  SDIIS (wt  0.000):  0.3519  0.6481
 A-DIIS (wt  1.000):  0.2376  0.7624
  DIIS coefficients:  0.2376  0.7624
 SCF Error: norm([F,P])=      4.212278243430, max([F,P])=      1.568530983970
 orbitals (Q,E):
 ---------------
 S :1...3            ( 2.00    -3.0898)  ( 1.00    -0.3551)  ( 0.00    -0.0106)
 P :1...2            ( 6.00    -2.0988)  ( 0.00    -0.1560)
 D :1...2            ( 5.00    -0.6568)  ( 0.00     0.0486)

 CYCLE    4
  SDIIS (wt  0.000): -0.0802  0.2380  0.8422
 A-DIIS (wt  1.000):  0.0000  0.2131  0.7869
  DIIS coefficients:  0.0000  0.2131  0.7869
 SCF Error: norm([F,P])=      1.823310320672, max([F,P])=      0.621470068658
 orbitals (Q,E):
 ---------------
 S :1...3            ( 2.00    -2.1329)  ( 1.00    -0.1098)  ( 0.00     0.0530)
 P :1...2            ( 6.00    -1.2112)  ( 0.00     0.0122)
 D :1...2            ( 5.00    -0.0245)  ( 0.00     0.1765)

 CYCLE    5
  SDIIS (wt  0.000): -0.0246 -0.0857  0.3373  0.7730
 A-DIIS (wt  1.000):  0.0000  0.0000  0.3000  0.7000
  DIIS coefficients:  0.0000  0.0000  0.3000  0.7000
 SCF Error: norm([F,P])=      1.058828219057, max([F,P])=      0.362553371378
 orbitals (Q,E):
 ---------------
 S :1...3            ( 2.00    -2.5065)  ( 1.00    -0.1954)  ( 0.00     0.0191)
 P :1...2            ( 6.00    -1.5530)  ( 0.00    -0.0541)
 D :1...2            ( 5.00    -0.2373)  ( 0.00     0.1039)

 CYCLE    6
  SDIIS (wt  0.000):  0.0107 -0.0168 -0.1404  0.2233  0.9231
 A-DIIS (wt  1.000):  0.0000  0.0000  0.0000  0.1685  0.8315
  DIIS coefficients:  0.0000  0.0000  0.0000  0.1685  0.8315
 SCF Error: norm([F,P])=      0.386302370665, max([F,P])=      0.125926487743
 orbitals (Q,E):
 ---------------
 S :1...3            ( 2.00    -2.2911)  ( 1.00    -0.1348)  ( 0.00     0.0380)
 P :1...2            ( 6.00    -1.3509)  ( 0.00    -0.0079)
 D :1...2            ( 5.00    -0.0948)  ( 0.00     0.1449)

 CYCLE    7
  SDIIS (wt  0.044): -0.0008  0.0043  0.0172 -0.1816  0.1952  0.9657
 A-DIIS (wt  0.956):  0.0000  0.0000  0.0000  0.0000  0.3526  0.6474
  DIIS coefficients: -0.0000  0.0002  0.0008 -0.0081  0.3456  0.6615
 SCF Error: norm([F,P])=      0.284734623559, max([F,P])=      0.095612429384
 orbitals (Q,E):
 ---------------
 S :1...3            ( 2.00    -2.3844)  ( 1.00    -0.1556)  ( 0.00     0.0295)
 P :1...2            ( 6.00    -1.4366)  ( 0.00    -0.0239)
 D :1...2            ( 5.00    -0.1494)  ( 0.00     0.1281)

 CYCLE    8
  SDIIS (wt  0.772):  0.0000  0.0002 -0.0034 -0.0193  0.0076  0.2482  0.7667
 A-DIIS (wt  0.228):  0.0000  0.0000  0.0000  0.0000  0.0000  0.0289  0.9711
  DIIS coefficients:  0.0000  0.0002 -0.0026 -0.0149  0.0058  0.1982  0.8133
 SCF Error: norm([F,P])=      0.070427042512, max([F,P])=      0.023581757016
 orbitals (Q,E):
 ---------------
 S :1...3            ( 2.00    -2.3580)  ( 1.00    -0.1494)  ( 0.00     0.0311)
 P :1...2            ( 6.00    -1.4122)  ( 0.00    -0.0192)
 D :1...2            ( 5.00    -0.1332)  ( 0.00     0.1325)

 CYCLE    9
  SDIIS (wt  0.929): -0.0000 -0.0000  0.0002  0.0020 -0.0040 -0.0349  0.1906  0.8461
 A-DIIS (wt  0.071):  0.0000  0.0000  0.0000  0.0000  0.0000  0.0000  0.1077  0.8923
  DIIS coefficients: -0.0000 -0.0000  0.0002  0.0018 -0.0037 -0.0324  0.1847  0.8494
 SCF Error: norm([F,P])=      0.024021634807, max([F,P])=      0.008070140854
 orbitals (Q,E):
 ---------------
 S :1...3            ( 2.00    -2.3650)  ( 1.00    -0.1511)  ( 0.00     0.0305)
 P :1...2            ( 6.00    -1.4187)  ( 0.00    -0.0205)
 D :1...2            ( 5.00    -0.1375)  ( 0.00     0.1313)

 CYCLE   10
  SDIIS (wt  1.000):  0.0000  0.0000 -0.0000 -0.0003  0.0006  0.0038 -0.0155  1.0114
  DIIS coefficients:  0.0000  0.0000 -0.0000 -0.0003  0.0006  0.0038 -0.0155  1.0114
 SCF Error: norm([F,P])=      0.001691537232, max([F,P])=      0.000569379855
 orbitals (Q,E):
 ---------------
 S :1...3            ( 2.00    -2.3645)  ( 1.00    -0.1510)  ( 0.00     0.0305)
 P :1...2            ( 6.00    -1.4182)  ( 0.00    -0.0204)
 D :1...2            ( 5.00    -0.1372)  ( 0.00     0.1314)

 CYCLE   11
  SDIIS (wt  1.000):  0.0000 -0.0000  0.0000  0.0002 -0.0008 -0.0102 -0.0868  1.0976
  DIIS coefficients:  0.0000 -0.0000  0.0000  0.0002 -0.0008 -0.0102 -0.0868  1.0976
 SCF Error: norm([F,P])=      0.000000816018, max([F,P])=      0.000000266639
 orbitals (Q,E):
 ---------------
 S :1...3            ( 2.00    -2.3645)  ( 1.00    -0.1510)  ( 0.00     0.0305)
 P :1...2            ( 6.00    -1.4182)  ( 0.00    -0.0204)
 D :1...2            ( 5.00    -0.1372)  ( 0.00     0.1314)

 CYCLE   12
  SDIIS (wt  1.000): -0.0000  0.0000  0.0001  0.0011  0.0118  0.9869
  DIIS coefficients: -0.0000  0.0000  0.0001  0.0011  0.0118  0.9869
 SCF Error: norm([F,P])=      0.000000024268, max([F,P])=      0.000000008564
 orbitals (Q,E):
 ---------------
 S :1...3            ( 2.00    -2.3645)  ( 1.00    -0.1510)  ( 0.00     0.0305)
 P :1...2            ( 6.00    -1.4182)  ( 0.00    -0.0204)
 D :1...2            ( 5.00    -0.1372)  ( 0.00     0.1314)

 SCF CONVERGED

 CYCLE   13
1
 ***************************************************************************************************



                                                *******************
                                                *  R E S U L T S  *
                                                *******************
  
 *** Using FIT density in Focky
  SDIIS (wt  1.000):  0.0000  0.0000 -0.0009 -0.0131  1.0139
  DIIS coefficients:  0.0000  0.0000 -0.0009 -0.0131  1.0139
 SCF Error: norm([F,P])=      0.000000001716, max([F,P])=      0.000000000646

 Scaled ZORA Orbital Energies, per Irrep and Spin:
 =================================================
                        Occup              E (au)              E (eV)       Diff (eV) with prev. cycle
                        -----      --------------------        ------       --------------------------
 S
               1        2.000     -0.23645412461087E+01       -64.342               1.08E-08
               2        1.000     -0.15095063251582E+00        -4.108               1.52E-08
               3        0.000      0.30491108737404E-01         0.830
               4        0.000      0.39955981712578E+00        10.873
               5        0.000      0.28259043504195E+01        76.897
 P
               1        6.000     -0.14182481541156E+01       -38.592               1.24E-08
               2        0.000     -0.20381990593673E-01        -0.555
               3        0.000      0.61122831684606E+00        16.632
               4        0.000      0.40294008516846E+01       109.646
 D
               1        5.000     -0.13719857998971E+00        -3.733               1.57E-08
               2        0.000      0.13138303481334E+00         3.575
               3        0.000      0.10915573963069E+01        29.703


 Partially Occupied:
               2 S                -0.15095063251582E+00
               1 D                -0.13719857998971E+00
  
 HOMO :        1 P                -0.14182481541156E+01
 LUMO :        2 P                -0.20381990593673E-01
  


 Orbital Energies, all Irreps
 ========================================

 Irrep        no.  (spin)   Occup              E (au)                E (eV)
 ---------------------------------------------------------------------------
 S             1             2.00       -0.23645412461087E+01       -64.3424
 P             1             6.00       -0.14182481541156E+01       -38.5925
 S             2             1.00       -0.15095063251582E+00        -4.1076
 D             1             5.00       -0.13719857998971E+00        -3.7334
 P             2             0.00       -0.20381990593673E-01        -0.5546
 S             3             0.00        0.30491108737404E-01         0.8297
 D             2             0.00        0.13138303481334E+00         3.5751
 S             4             0.00        0.39955981712578E+00        10.8726
 P             3             0.00        0.61122831684606E+00        16.6324
 D             3             0.00        0.10915573963069E+01        29.7028
 S             5             0.00        0.28259043504195E+01        76.8968
 P             4             0.00        0.40294008516846E+01       109.6456


 Scaled ZORA Orbital Energies of the Core Orbitals:
 ==================================================

 (Note that the atoms are grouped by atomtype, see the labels, and may hence NOT be in input order)

 AtomType  Orbital  Atom                   E (au)                        E (eV)
 --------  -------  ----           --------------------        ----------------
 Mo          1S        1          -0.72810156987753E+03              -19812.652
             2S        1          -0.10281078869890E+03               -2797.624
             3S        1          -0.17490063510859E+02                -475.929
             2P        1          -0.91890973277880E+02               -2500.481
             3P        1          -0.13936907885645E+02                -379.243
             3D        1          -0.81284558211672E+01                -221.187



 =======================================
 M U L L I K E N   P O P U L A T I O N S
 =======================================
  
 The survey below gives for each atom:
 a) the total charge (Z minus electrons)
 b) the net spin polarization (nr of electrons spin-A minus spin-B)
 c) for each spin the atomic electron valence density (integrated) per L-value.

 Atom              Charge    Spin density          S         P         D         F
 ----              ------    ------------       ------    ------    ------    ------
 1 Mo              0.0000                       3.0000    6.0000    5.0000    0.0000

 Populations of individual BAS functions
 ----------------------------------------
 1 Mo          -0.0051  0.0033 -0.0315  0.0008  0.0008  0.0008  0.0345  0.0345  0.0345  0.0153
                0.0230  0.0230  0.0153  0.0230  0.0153  1.3114  0.7310  0.3903  0.5032  0.0973
                0.7293  0.7293  0.7293  1.1024  1.1024  1.1024  0.1310  0.1310  0.1310  0.2744
                0.4116  0.4116  0.2744  0.4116  0.2744  0.3155  0.4732  0.4732  0.3155  0.4732
                0.3155  0.0615  0.0922  0.0922  0.0615  0.0922  0.0615  0.0019  0.0019  0.0019

 Gross Charges per Atom (Z minus electrons)
 ==========================================
             0.0000
 Net Total:  0.00000000



 =======================================================================
 Electrostatic potential at the Nuclei due to electrons and other nuclei
 =======================================================================
  
         Atom                  Potential
         ----                  ---------
     1)   Mo                232.78835403
 
 
 ========================
 No memory problems found
 ========================
 
 Maximum number of active allocate calls:         389
 
 *******************************************************************************

                             A D F   E X I T
 NORMAL TERMINATION



 =================
 Timing Statistics
 =================
  
 Total Used :                     CPU=        0.67      System=        0.04     Elapsed=        0.74

 Calls  Section                     ( Mean, Percentage )
 ---------------------------------------------------------------------------------------------------
     3  ><      ................      0.00    0.00             0.00    0.00             0.00    0.54
     1  INIT    ................      0.06    8.98             0.01   22.22             0.07    9.84
     1  GEOMET  ................      0.01    1.20             0.01   33.33             0.02    3.27
     1  INPUTA  ................      0.00    0.00             0.00   11.11             0.00    0.48
     1  MAINSY  ................      0.02    2.40             0.00    0.00             0.02    2.40
     1  SYMFIT  ................      0.00    0.00             0.00    0.00             0.00    0.21
     1  CORORT  ................      0.00    0.60             0.00    0.00             0.00    0.24
     1  SYMORB  ................      0.00    0.00             0.00    0.00             0.00    0.13
     1  CLSMAT  ................      0.00    0.60             0.00    0.00             0.01    0.72
     1  ORTHON  ................      0.00    0.60             0.00    0.00             0.01    0.72
     1  GENPT   ................      0.02    2.40             0.00   11.11             0.02    2.80
     1  PTBAS   ................      0.01    1.20             0.00    0.00             0.01    0.75
    13  FOCKY   ................      0.04   69.46             0.00   22.22             0.04   64.44
    13  FOCKTR  ................      0.00    0.60             0.00    0.00             0.00    1.09
    13  SDIIS   ................      0.00    4.79             0.00    0.00             0.00    4.81
     1  COREPS  ................      0.03    4.19             0.00    0.00             0.03    4.59
     1  POPAN   ................      0.00    0.60             0.00    0.00             0.01    0.69
     1  DEBYE   ................      0.00    0.00             0.00    0.00             0.00    0.28
     1  EXIT PROCEDURE .........      0.02    2.40             0.00    0.00             0.01    2.01


 Currently Open Files (EXIT00)
 ====================

 Unit    Access Format  Status   Type       Ident (file)
 -------------------------------------------------------
   3      SEQ    FORM   TRANSP  NORMAL      LOGFILE
                                          ( logfile )

 ***************************************************************************************************
 (LOGFILE)
  Coordinates
    Atom         X           Y           Z   (Angstrom)
    1.H         0.000000    0.000000    0.000000
  Coordinates
    Atom         X           Y           Z   (Angstrom)
    1.Mo        0.000000    0.000000    0.000000

 *******************************************************************************
 *                                                                             *
 *  -------------------------------------                                      *
 *   Amsterdam Density Functional  (ADF)         2019                          *
 *  -------------------------------------                                      *
 *                                               r74351 2019-04-25             *
 *                                                                             *
 *                                                                             *
 *                            =====================                            *
 *                            |                   |                            *
 *                            |     D I R A C     |                            *
 *                            |                   |                            *
 *                            =====================                            *
 *                                                                             *
 *                                                                             *
 *   Online information and documentation:  https://www.scm.com/support/       *
 *   E-mail:  support@scm.com   info@scm.com                                   *
 *                                                                             *
 *   Scientific publications using ADF results must be properly referenced     *
 *   See the User Manuals (or the web site) for recommended citations          *
 *   The terms and conditions of the End User License Agreement apply to       *
 *   the use of ADF, https://www.scm.com/license-terms/                        *
 *                                                                             *
 **********************  x86_64_linux_intel / intelmpi  ************************
 
  
 DIRAC 2019  RunTime: Mar13-2023 16:13:02  Nodes: 1  Procs: 1

 Temporary files are created in /scratch/kid_0.1678930719

1
 OXYGEN ATOM 1s CORE RELATIVISTIC, Point Nuc, A and c from li
 N J RN H ZN XION ANUC CLIGHT
 5000    4100.00000000197.36710137  8.00000000  0.00000000   15.994914  0.1370360E+03
  PH   PHI     EPS        DEL        DELRVR
  0.30  0.30     2500.00  0.00001000  0.00001000
 IDIRC  NC1  NDEBU NPRIN  IPUN IRCOR IWCOR
   1   300     0     0     0     0     1
   XALPHA      XLATTER      RNUC
  0.70000000  0.00000000  0.00000000 Point Charge
   XN   XL   XJ      XE          XZ      XDELL
  1.0  0.0  0.5      -5.000       2.000     0.00000
  2.0  0.0  0.5      -1.000       2.000     0.00000
  2.0  1.0  0.5      -1.000       2.000     0.00000
  2.0  1.0  1.5      -1.000       2.000     0.00000
 ICORP=  0  NPCL=  0  DEMP=0.00  PEPS=0.000000
 R(1)=  0.1000000E-08 D=  0.1005080E+01 RNUC=  0.0000000E+00
 converged at cycle   28  DENSITY AVERAGING    0.2400
  MAXIMUM ERROR IN R.V(R) IS   0.81125670E-05
 Q,EY,EV,EZ,ESUM,ETOT,RHO  0.800000E+01 -0.101247E+02 -0.114961E+03 -0.177573E+03 -0.405053E+02 -0.743427E+02  0.414766E-14


 DIRAC CALCULATION
1                    OXYGEN ATOM 1s CORE RELATIVISTIC, Point Nuc, A and c from libtc


 EXCHANGE COEFFICIENT=  0.7000000           TAIL CORRECTION=  0.           NUCLEAR RADIUS=  0.000E+00
0                       ORBITAL    N    L    J     ELECTRONS     EIGENVALUE                DELTA OF EIGENV.

                          1S1/2  1.0  0.0  0.5     2.000       -0.1880014E+02                 0.7264358E-06
                          2S1/2  2.0  0.0  0.5     2.000       -0.8412236E+00                 0.5932752E-05
                          2P1/2  2.0  1.0  0.5     2.000       -0.3063203E+00                 0.5998471E-05
                          2P3/2  2.0  1.0  1.5     2.000       -0.3049609E+00                 0.5986971E-05


                                        NUCLEAR CHARGE=    8.000000
                            INTEGRAL OF CHARGE DENSITY=    8.000000
                           SUM OF THE ORBITAL ENERGIES=    -40.5053
                                          TOTAL ENERGY=    -74.3427
                                        KINETIC ENERGY=     74.4552
                             NUCLEAR ATTRACTION ENERGY=   -177.5730
                             ELECTRON REPULSION ENERGY=     36.3686
                                       EXCHANGE ENERGY=     -7.5935

 *******************************************************************************

                             D I R A C   E X I T
 NORMAL TERMINATION



 =================
 Timing Statistics
 =================
  
 Total Used :                     CPU=        0.10      System=        0.00     Elapsed=        0.11

 Calls  Section                     ( Mean, Percentage )
 ---------------------------------------------------------------------------------------------------
     2  ><      ................      0.00    0.00             0.00    0.00             0.00    0.01
     1  EXIT PROCEDURE .........      0.10  100.00             0.00    0.00             0.11   99.99


 Currently Open Files (EXIT00)
 ====================

 Unit    Access Format  Status   Type       Ident (file)
 -------------------------------------------------------
   3      SEQ    FORM   TRANSP  NORMAL      LOGFILE
                                          ( logfile )
 
Create O   file=TZP-O.1s
XC
  GGA PBE
End
relativistic ZORA
Corepotentials t12.rel
End

 *******************************************************************************
 *                                                                             *
 *  -------------------------------------                                      *
 *   Amsterdam Density Functional  (ADF)         2019                          *
 *  -------------------------------------                                      *
 *                                               r74351 2019-04-25             *
 *                                                                             *
 *                                                                             *
 *                              =================                              *
 *                              |               |                              *
 *                              |     A D F     |                              *
 *                              |               |                              *
 *                              =================                              *
 *                                                                             *
 *                                                                             *
 *   Online information and documentation:  https://www.scm.com/support/       *
 *   E-mail:  support@scm.com   info@scm.com                                   *
 *                                                                             *
 *   Scientific publications using ADF results must be properly referenced     *
 *   See the User Manuals (or the web site) for recommended citations          *
 *   The terms and conditions of the End User License Agreement apply to       *
 *   the use of ADF, https://www.scm.com/license-terms/                        *
 *                                                                             *
 **********************  x86_64_linux_intel / intelmpi  ************************
 
  
 ADF 2019  RunTime: Mar13-2023 16:13:02  Nodes: 1  Procs: 1

 Temporary files are created in /scratch/kid_0.393738912

 Oxygen (TZP, 1s frozen)



 ===========================
 A T T A C H E D   F I L E S
 ===========================
  
 CREATE - Data File:    TZP-O.1s
                        Oxygen (TZP, 1s frozen)
 Core Potentials:
         file : t12.rel



 ===============================
 M O D E L   P A R A M E T E R S
 ===============================
  
 DENSITY FUNCTIONAL POTENTIAL (scf)
    LDA:                               PW92                                    == Not Default ==
    Gradient Corrections:              PBEc PBEx                               == Not Default ==

 SPIN  (restricted / unrestr.)
    Molecule:                          Restricted                               

 OTHER ASPECTS
    Relativistic Corrections:          scalar (ZORA,MAPA)                      == Not Default ==

    Nuclear Charge Density Model:      Point Charge Nuclei                      
    Core Treatment:                    Frozen Orbital(s)                        

    Hyperfine or Zeeman Interaction:   ---                                      



 =====================================
 S Y M M E T R Y ,   E L E C T R O N S
 =====================================
  
 Symmetry: ATOM

 Irreducible Representations, including subspecies
 -------------------------------------------------
 S
 P:x  P:y  P:z
 D:z2  D:x2-y2  D:xy  D:xz  D:yz
 F:z3  F:z  F:xyz  F:z2x  F:z2y  F:x  F:y


 Configuration of Valence Electrons
 ==================================

          Occupation Numbers
          -------------------------------------------------
 S        2
 P        4
 D        0
 F        0
          -------------------------------------------------

 Total:   6

 Net Charge: 0 (Nuclei minus Electrons)

 Preset values for MO occupations will be applied through SCF cycle no. 1000000
 Thereafter, the program will assign electrons to MOs that are spatially
 similar to the occupied MOs in a "reference" cycle ("KeepOrbitals").
 The reference cycle is always the PREVIOUS cycle: it will evolve with
 the SCF procedure.



 ================================
 (Slater-type)  F U N C T I O N S  ***  (Basis and Fit)  ***
 ================================
  

 Atom Type    1  (O)
 ==============

 Valence Basis Sets:   8
 -----------------------
   1 S    7.360000
   2 S    1.720000
   2 S    2.880000
   2 S    7.580000
   2 P    1.120000
   2 P    2.080000
   2 P    4.080000
   3 D    2.000000

 Frozen Core Shells
 ------------------
    S:  1


 BAS: List of all Elementary Cartesian Basis Functions
 =====================================================

 The numbering in the list below (to the right of the function characteristics) is referred
 to in print-outs of MO eigenvectors and Mulliken populations in the BAS representation
 (as contrasted to the SFO representation).

 Notes:
 1. The functions are characterized by a polynomial prefactor (powers of x,y,z and r) and
    an exponential decay factor alpha.
 2. Since the basis sets are specific for an atom TYPE, the individual functions occur on
    all atoms of that type.
 3. The word 'Core' in the left margin signals that it is a Core Function (CF) : not a
    degree of freedom in the valence set, but only used to ensure orthogonalization of
    the other valence basis functions on the frozen Core Orbitals.


 (power of) X  Y  Z  R     Alpha  on Atom
            ==========     =====     ==========

 O                                    1
                                  ---------------------------------------------------------------------------
    Core    0  0  0  0     7.360      1
            0  0  0  1     1.720      2
            0  0  0  1     2.880      3
            0  0  0  1     7.580      4
            1  0  0  0     1.120      5
            0  1  0  0     1.120      6
            0  0  1  0     1.120      7
            1  0  0  0     2.080      8
            0  1  0  0     2.080      9
            0  0  1  0     2.080     10
            1  0  0  0     4.080     11
            0  1  0  0     4.080     12
            0  0  1  0     4.080     13
            2  0  0  0     2.000     14
            1  1  0  0     2.000     15
            1  0  1  0     2.000     16
            0  2  0  0     2.000     17
            0  1  1  0     2.000     18
            0  0  2  0     2.000     19

 Total number of charge fitting functions (nprimf)        82
 Total number of Cartesian basis functions (naos)         19
 Total number of Cartesian core functions  (ncos)          1



 BAS: List of all Elementary Cartesian Basis Functions
 =====================================================

 The numbering in the list below (to the right of the function characteristics) is referred
 to in print-outs of MO eigenvectors and Mulliken populations in the BAS representation
 (as contrasted to the SFO representation).

 Notes:
 1. The functions are characterized by a polynomial prefactor (powers of x,y,z and r) and
    an exponential decay factor alpha.
 2. Since the basis sets are specific for an atom TYPE, the individual functions occur on
    all atoms of that type.
 3. The word 'Core' in the left margin signals that it is a Core Function (CF) : not a
    degree of freedom in the valence set, but only used to ensure orthogonalization of
    the other valence basis functions on the frozen Core Orbitals.


 (power of) X  Y  Z  R     Alpha  on Atom
            ==========     =====     ==========

 O                                    1
                                  ---------------------------------------------------------------------------
    Core    0  0  0  0     7.360      1
            0  0  0  1     1.720      2
            0  0  0  1     2.880      3
            0  0  0  1     7.580      4
            1  0  0  0     1.120      5
            0  1  0  0     1.120      6
            0  0  1  0     1.120      7
            1  0  0  0     2.080      8
            0  1  0  0     2.080      9
            0  0  1  0     2.080     10
            1  0  0  0     4.080     11
            0  1  0  0     4.080     12
            0  0  1  0     4.080     13
            2  0  0  0     2.000     14
            1  1  0  0     2.000     15
            1  0  1  0     2.000     16
            0  2  0  0     2.000     17
            0  1  1  0     2.000     18
            0  0  2  0     2.000     19
1
 ***************************************************************************************************



                                              ***********************
                                              *  T E C H N I C A L  *
                                              ***********************
  



 =============================================================
 P A R A L L E L I Z A T I O N  and  V E C T O R I Z A T I O N
 =============================================================
  
 Nr of parallel processes:                                1
 Maximum vector length in NumInt loops:                 128



 =====================
 S C F   U P D A T E S
 =====================
  
 Max. nr. of cycles:                               300
 Convergence criterion:                              0.0000000100
   secondary criterion:                              0.0000000100

 Mix parameter (when DIIS does not apply):           0.2000000000
 Special mix parameter for the first cycle:          1.0000000000
 Mixed ADIIS+SDIIS will be used                  
    Max number of expansion vectors:                10
    Pure ADIIS when Max([F,P]) is above              0.1000000000
    Pure SDIIS when Max([F,P]) is below              0.0010000000
 Automatic ElectronSmearing (in case of problematic SCF convergence) disabled



 =================
 P R E C I S I O N  ***  (General: NumInt, NeglectFunctionTails, ...)  ***
 =================
  

 NumInt:           Target precision:                12.0000000000
 -------           Initial precision:               10.0000000000
                   Min. precision (optimization):   10.0000000000

 Neglect Functions:          Basis functions:        0.1000000000E-13
 ------------------          Fit functions:          0.1000000000E-13



 ===========================
 L I N E A R   S C A L I N G
 ===========================
  

 Cut-off radii density fit:                        0.1000000000E-97
 Overlap cut-off criterion AO matrix elements:     0.1000000000E-97
 Cut-offs for Coulomb potential and fitted density:0.1000000000E-97
 Cut-off criterion for Coulomb multipole terms:    0.1000000000E-97
 Progressive Convergence parameter:                 0.000000000    
1
 ***************************************************************************************************



                                            ***************************
                                            *  C O M P U T A T I O N  *
                                            ***************************
  

 Number of elements of the density matrix on this node (used, total):       190       190



 ===========================================
 Numerical Integration : Fuzzy Cells (Becke)
 ===========================================
  
 Becke grid quality: VERYGOOD       
  
 Lebedev angular grid order:             min:  13 max:  41
 Nr. of radial points:                   min:  68 max:  68

 Total nr. of points:         68
 Nr. of blocks:                1
 Block length:                68
 Nr. of dummy points:          0


 Test of Precision of the Numerical Integration Grid
 ===================================================

 Integral of the Total Core Density:                   1.99999999865610
 Relative Error:                                      -6.720E-10



 ========================
 Density Fitting (zlmFit)
 ========================
  
 ZlmFit Fit Quality: VERYGOOD       
  
 Max L-expansion:                        min:   0 max:   0
 Nr. of radial interpolation points:     min: 140 max: 140



 =====
 S C F  ***  ScaSCF  ***
 =====
  

 CYCLE    1
 SCF Error: norm([F,P])=      0.000000000000, max([F,P])=      0.000000000000
 orbitals (Q,E):
 ---------------
 S :1...3            ( 2.00    -5.3654)  ( 0.00    -2.2073)  ( 0.00    23.6692)
 P :1...3            ( 4.00    -5.0045)  ( 0.00    -2.0150)  ( 0.00    -0.3846)
 D :1...1            ( 0.00    -2.0410)

 CYCLE    2
 SCF Error: norm([F,P])=      4.562993374873, max([F,P])=      2.528971113813
 orbitals (Q,E):
 ---------------
 S :1...2            ( 2.00    -0.1548)  ( 0.00     1.6948)
 P :1...2            ( 4.00     0.1773)  ( 0.00     0.9552)
 D :1...1            ( 0.00     1.4649)

 CYCLE    3
  SDIIS (wt  0.000):  0.3378  0.6622
 A-DIIS (wt  1.000):  0.4814  0.5186
  DIIS coefficients:  0.4814  0.5186
 SCF Error: norm([F,P])=      2.723155250500, max([F,P])=      1.798667049295
 orbitals (Q,E):
 ---------------
 S :1...2            ( 2.00    -1.1093)  ( 0.00     0.7549)
 P :1...2            ( 4.00    -0.5518)  ( 0.00     0.2590)
 D :1...1            ( 0.00     0.8910)

 CYCLE    4
  SDIIS (wt  0.000):  0.0919  0.9081
 A-DIIS (wt  1.000):  0.0000  1.0000
  DIIS coefficients:  0.0000  1.0000
 SCF Error: norm([F,P])=      0.289027138405, max([F,P])=      0.130648623511
 orbitals (Q,E):
 ---------------
 S :1...2            ( 2.00    -0.7707)  ( 0.00     0.9912)
 P :1...2            ( 4.00    -0.2284)  ( 0.00     0.4046)
 D :1...1            ( 0.00     1.1288)

 CYCLE    5
  SDIIS (wt  0.000):  0.0260  0.6740  0.3001
 A-DIIS (wt  1.000):  0.0000  0.5764  0.4236
  DIIS coefficients:  0.0000  0.5764  0.4236
 SCF Error: norm([F,P])=      0.416615089426, max([F,P])=      0.232643669786
 orbitals (Q,E):
 ---------------
 S :1...2            ( 2.00    -0.8764)  ( 0.00     0.9107)
 P :1...2            ( 4.00    -0.3280)  ( 0.00     0.3557)
 D :1...1            ( 0.00     1.0703)

 CYCLE    6
  SDIIS (wt  0.942):  0.0005  0.0237 -0.0203  0.9960
 A-DIIS (wt  0.058):  0.0000  0.0000  0.0000  1.0000
[...]
    4.O          0.077   0.042   0.128        -0.177  -0.102  -0.296         0.146   0.093   0.255
    5.O         -0.223   0.043   0.032        -0.280   0.055   0.042        -0.410   0.084   0.064
    6.O          0.105   0.095   0.007         0.031   0.049  -0.015        -0.011   0.028  -0.029
    7.O         -0.370  -0.034   0.537        -0.004  -0.000   0.007         0.210   0.020  -0.304
    8.O          0.011  -0.219  -0.276         0.011  -0.231  -0.289         0.011  -0.290  -0.362
    9.O          0.161  -0.184  -0.108        -0.327   0.375   0.215         0.205  -0.234  -0.131
   10.O          0.040   0.068  -0.021         0.093   0.013   0.061         0.008  -0.001   0.008
   11.O         -0.003  -0.012   0.009        -0.002  -0.024   0.017        -0.012  -0.020   0.006
   12.O         -0.061   0.069  -0.104         0.009  -0.055   0.055         0.029   0.017   0.010
   13.O         -0.014  -0.005   0.009         0.038   0.006  -0.030        -0.023  -0.022   0.016
   14.O          0.114  -0.450  -0.107         0.001  -0.005  -0.001        -0.080   0.306   0.076
   15.H          0.022  -0.101   0.001        -0.118   0.496  -0.005        -0.185  -0.018   0.184
   16.H          0.011  -0.021   0.044         0.083  -0.123   0.193         0.082  -0.120   0.206


                      1136.559                      2887.158                      3663.250
              ------------------------      ------------------------      ------------------------
    1.Mo         0.006   0.003   0.004         0.001   0.001  -0.001         0.000  -0.000   0.000
    2.Mo        -0.001  -0.001  -0.001        -0.000  -0.001   0.001         0.000   0.000  -0.000
    3.Mo         0.001   0.001  -0.000        -0.000  -0.000  -0.000         0.000   0.000   0.000
    4.O         -0.008  -0.007  -0.013        -0.001  -0.001  -0.001        -0.000  -0.000  -0.000
    5.O          0.003  -0.002  -0.000        -0.000   0.000  -0.000         0.000  -0.000   0.000
    6.O          0.001  -0.001   0.001         0.001   0.001   0.000        -0.000  -0.000   0.000
    7.O         -0.002   0.000   0.003         0.000  -0.000   0.000        -0.000  -0.000   0.000
    8.O         -0.000   0.003   0.004         0.000  -0.000  -0.001        -0.000   0.000   0.000
    9.O         -0.002  -0.000   0.000        -0.001   0.001   0.001        -0.000   0.000   0.000
   10.O         -0.001  -0.007   0.005         0.002   0.000   0.001        -0.000   0.000  -0.000
   11.O          0.004   0.009  -0.022        -0.002   0.001  -0.005         0.057   0.010  -0.024
   12.O         -0.004   0.001  -0.003         0.001  -0.002   0.002        -0.000   0.000  -0.000
   13.O          0.005   0.011  -0.042         0.047   0.017   0.044        -0.000  -0.000  -0.000
   14.O          0.001  -0.004  -0.002         0.000  -0.000   0.000         0.000  -0.000  -0.000
   15.H         -0.528  -0.370   0.747        -0.732  -0.273  -0.621         0.006   0.001   0.003
   16.H          0.071  -0.004   0.139        -0.014   0.001  -0.015        -0.912  -0.153   0.375




 List of All Frequencies:


 Intensities
 ===========

               Frequency       Dipole Strength        Absorption Intensity (degeneracy not counted)
                 cm-1           1e-40 esu2 cm2          km/mole
              ----------          ----------          ----------
               22.849955          803.539596            4.602255
               33.423654          394.140941            3.302049
               47.031440           58.762649            0.692736
               55.270091          145.811161            2.020036
               83.837322          145.900763            3.066006
              116.198677           47.338738            1.378783
              161.994848          312.046722           12.670650
              178.413075          340.584865           15.231059
              181.548940          293.507281           13.356438
              201.281056          755.541181           38.118791
              203.707559          240.596765           12.284995
              205.615880          516.903313           26.640602
              210.954420          586.655173           31.020558
              231.640723         1428.884698           82.964093
              249.688700          415.542245           26.007113
              267.330226          300.385640           20.128217
              294.485116           78.434258            5.789582
              304.795429         1006.137017           76.867658
              309.371809          569.727242           44.180008
              321.774820          188.101518           15.171287
              323.652814          526.101807           42.680279
              332.193915          402.062645           33.478306
              355.126419          632.921998           56.339274
              460.815644         2647.602099          305.814449
              489.753095          124.886809           15.331047
              510.181915         1264.003572          161.640964
              573.160917         4688.939518          673.642176
              591.736705         2101.302777          311.670153
              635.441668         4564.021466          726.944806
              672.796388         4818.182561          812.540417
              679.367863         4861.564114          827.864171
              787.313234          650.710665          128.414347
              851.120810         1122.389981          239.449018
              864.935190         1593.586689          345.491471
              868.194054         2425.495632          527.831585
              876.427985         2232.354174          490.407841
              893.026542         1256.961844          281.361410
              902.638836         1716.803956          388.430023
              918.534294          324.416657           74.692430
             1136.558801          698.878535          199.100193
             2887.157991         3069.011373         2220.992633
             3663.249580          168.055669          154.311305



 ============================
 Statistical Thermal Analysis  ***  ideal gas assumed  ***
 ============================
  
 Pressure:                  1.000000 atm.
 Temperature:             298.150000 K



 Moments of Inertia [amu*bohr^2] and principal axis
 ==================================================

        4214.3719       6439.9271       9236.0653
 ------------------------------------------------
           0.8111          0.2743         -0.5166
           0.0680          0.8330          0.5491
           0.5810         -0.4805          0.6569


 The rotational contribution to the molecular entropy includes
 a term, dependent on the symmetry number sigma. The results 
 reported below were computed using sigma = 1, determined from
 the point group symmetry of the input geometry (NOSYM). 
 If this is not the correct symmetry, try symmetrizing the molecule before
 running the calculation (note: linear molecules should be aligned along one
 of the Cartesian axes).
 Contributions from frequencies below 20 1/cm are not included in
 the vibrational sums. Their contributions, if any, are reported separately.


     Temp                                                       Transl     Rotat    Vibrat     Total
     ----                                                       ------     -----    ------     -----

     298.15   Entropy (cal/mole-K):                             44.342    33.882    63.861   142.085
              Internal Energy (Kcal/mole):                       0.889     0.889    43.714    45.491
              Constant Volume Heat Capacity (cal/mole-K):        2.981     2.981    54.786    60.747

              Summary of energy terms
                                                   hartree              eV         kcal/mol           kJ/mol
                                      --------------------     -----------       ----------      -----------
              Bond Energy:              -4.730544848639722       -128.7247         -2968.46        -12420.04
              Internal Energy:           0.072494643018366          1.9727            45.49           190.33
              pV/n = RT:                 0.000944186013486          0.0257             0.59             2.48
              Enthalpy H:               -4.657106019607871       -126.7263         -2922.38        -12227.23
              -T*S:                     -0.067509034660288         -1.8370           -42.36          -177.24
              Gibbs free energy:        -4.724615054268159       -128.5633         -2964.74        -12404.48
 

 ***************************************************************************************************
 


====================================================================
*** DONE CALCULATING ANALYTICAL SECOND DERIVATIVES OF THE ENERGY ***
====================================================================




 ===========================================================
 SCAN POTENTIAL ENERGY SURFACE ALONG A RANGE OF NORMAL MODES  ***  with IR intensities  ***
 ===========================================================
  

 Symmetry has been reset to default with TOL= 0.000001000000

 RANGE OF FREQUENCIES: from  -1000.000 to      0.000



 ===================
 Vibration symmetry:  ***  A  ***
 ===================
  
 Total number of frequencies of this symmetry:    42
 Frequencies, cm^(-1):
      22.850      33.424      47.031      55.270      83.837     116.199     161.995     178.413
     181.549     201.281     203.708     205.616     210.954     231.641     249.689     267.330
     294.485     304.795     309.372     321.775     323.653     332.194     355.126     460.816
     489.753     510.182     573.161     591.737     635.442     672.796     679.368     787.313
     851.121     864.935     868.194     876.428     893.027     902.639     918.534    1136.559
    2887.158    3663.250
 Number of frequencies in the requested range:     0
 ===================================================================================================
 Summary of a frequency scan in the requested range: 
 (One component per degenerate irreducible representations, degeneracy is not counted in the intens.)
 ---------------------------------------------------------------------------------------------------
 Frequency, cm**(-1)      Dipol moment derivatives (a.u.)      IR Intensity   Force const   Red.mass
    Old      New                X         Y         Z            km/mole          a.u.        a.u.
 ---------------------------------------------------------------------------------------------------
 Vibration symmetry: A
    22.850      not re-calculated (not in the required range)
    33.424      not re-calculated (not in the required range)
    47.031      not re-calculated (not in the required range)
    55.270      not re-calculated (not in the required range)
    83.837      not re-calculated (not in the required range)
   116.199      not re-calculated (not in the required range)
   161.995      not re-calculated (not in the required range)
   178.413      not re-calculated (not in the required range)
   181.549      not re-calculated (not in the required range)
   201.281      not re-calculated (not in the required range)
   203.708      not re-calculated (not in the required range)
   205.616      not re-calculated (not in the required range)
   210.954      not re-calculated (not in the required range)
   231.641      not re-calculated (not in the required range)
   249.689      not re-calculated (not in the required range)
   267.330      not re-calculated (not in the required range)
   294.485      not re-calculated (not in the required range)
   304.795      not re-calculated (not in the required range)
   309.372      not re-calculated (not in the required range)
   321.775      not re-calculated (not in the required range)
   323.653      not re-calculated (not in the required range)
   332.194      not re-calculated (not in the required range)
   355.126      not re-calculated (not in the required range)
   460.816      not re-calculated (not in the required range)
   489.753      not re-calculated (not in the required range)
   510.182      not re-calculated (not in the required range)
   573.161      not re-calculated (not in the required range)
   591.737      not re-calculated (not in the required range)
   635.442      not re-calculated (not in the required range)
   672.796      not re-calculated (not in the required range)
   679.368      not re-calculated (not in the required range)
   787.313      not re-calculated (not in the required range)
   851.121      not re-calculated (not in the required range)
   864.935      not re-calculated (not in the required range)
   868.194      not re-calculated (not in the required range)
   876.428      not re-calculated (not in the required range)
   893.027      not re-calculated (not in the required range)
   902.639      not re-calculated (not in the required range)
   918.534      not re-calculated (not in the required range)
  1136.559      not re-calculated (not in the required range)
  2887.158      not re-calculated (not in the required range)
  3663.250      not re-calculated (not in the required range)
 ===================================================================================================



 ============================
 Statistical Thermal Analysis  ***  ideal gas assumed  ***
 ============================
  
 Pressure:                  1.000000 atm.
 Temperature:             298.150000 K



 Moments of Inertia [amu*bohr^2] and principal axis
 ==================================================

        4214.3719       6439.9271       9236.0653
 ------------------------------------------------
           0.8111          0.2743         -0.5166
           0.0680          0.8330          0.5491
           0.5810         -0.4805          0.6569


 The rotational contribution to the molecular entropy includes
 a term, dependent on the symmetry number sigma. The results 
 reported below were computed using sigma = 1, determined from
 the point group symmetry of the input geometry (NOSYM). 
 If this is not the correct symmetry, try symmetrizing the molecule before
 running the calculation (note: linear molecules should be aligned along one
 of the Cartesian axes).
 Contributions from frequencies below 20 1/cm are not included in
 the vibrational sums. Their contributions, if any, are reported separately.


     Temp                                                       Transl     Rotat    Vibrat     Total
     ----                                                       ------     -----    ------     -----

     298.15   Entropy (cal/mole-K):                             44.342    33.882    63.861   142.085
              Internal Energy (Kcal/mole):                       0.889     0.889    43.714    45.491
              Constant Volume Heat Capacity (cal/mole-K):        2.981     2.981    54.786    60.747

              Summary of energy terms
                                                   hartree              eV         kcal/mol           kJ/mol
                                      --------------------     -----------       ----------      -----------
              Bond Energy:              -4.730544848639722       -128.7247         -2968.46        -12420.04
              Internal Energy:           0.072494643018366          1.9727            45.49           190.33
              pV/n = RT:                 0.000944186013486          0.0257             0.59             2.48
              Enthalpy H:               -4.657106019607871       -126.7263         -2922.38        -12227.23
              -T*S:                     -0.067509034660288         -1.8370           -42.36          -177.24
              Gibbs free energy:        -4.724615054268159       -128.5633         -2964.74        -12404.48
 
 
 ========================
 No memory problems found
 ========================
 
 Maximum number of active allocate calls:        3268
 
 *******************************************************************************

                             A D F   E X I T
 NORMAL TERMINATION



 =================
 Timing Statistics
 =================
  
 Total Used :                     CPU=     1432.95      System=      310.28     Elapsed=     1819.53

 Calls  Section                     ( Mean, Percentage )
 ---------------------------------------------------------------------------------------------------
     3  ><      ................      0.00    0.00             0.00    0.00             0.00    0.00
     1  INIT    ................      0.39    0.03             0.00    0.00             0.41    0.02
     1  GEOMET  ................      0.04    0.00             0.01    0.00             0.07    0.00
     1  FRAGM   ................      0.02    0.00             0.02    0.01             0.05    0.00
     1  INPUTA  ................      0.00    0.00             0.00    0.00             0.00    0.00
     1  ATDEN   ................      0.00    0.00             0.01    0.00             0.01    0.00
    39  MAINSY  ................      0.03    0.10             0.01    0.18             0.08    0.17
    39  SYMFIT  ................      0.01    0.02             0.00    0.01             0.01    0.02
    39  CORORT  ................      0.02    0.07             0.00    0.01             0.02    0.05
    39  SYMORB  ................      0.01    0.01             0.00    0.01             0.01    0.02
    39  CLSMAT  ................      0.01    0.02             0.00    0.04             0.01    0.02
    39  ORTHON  ................      0.01    0.03             0.00    0.04             0.02    0.03
    39  GENPT   ................      0.13    0.34             0.01    0.09             0.13    0.29
    39  PTBAS   ................      0.40    1.09             0.02    0.21             0.42    0.91
   799  FOCKY   ................      0.74   41.50             0.17   43.55             0.96   42.07
   799  FOCKTR  ................      0.01    0.35             0.00    0.32             0.01    0.34
   799  SDIIS   ................      0.00    0.19             0.00    0.11             0.00    0.22
    39  TOTEN   ................      1.32    3.60             0.12    1.51             1.53    3.28
    39  POPAN   ................      0.01    0.02             0.00    0.02             0.02    0.04
    39  DEBYE   ................      0.01    0.02             0.00    0.04             0.03    0.06
    39  INPUTE  ................      0.00    0.00             0.00    0.00             0.00    0.00
    39  SYMORE  ................      0.00    0.00             0.00    0.01             0.00    0.00
    77  ELNRGY  ................      1.30    6.98             0.01    0.24             1.33    5.63
    38  ENGRAD  ................      0.00    0.00             0.00    0.00             0.00    0.00
     1  COREPS  ................      0.64    0.04             0.11    0.04             0.80    0.04
     1  METS    ................      0.00    0.00             0.00    0.00             0.00    0.00
     1  CETS    ................      0.01    0.00             0.01    0.00             0.02    0.00
     1  POPUL   ................      0.02    0.00             0.00    0.00             0.03    0.00
     1  ENHESS  ................    652.94   45.57           166.16   53.55           850.76   46.76
     1  EXIT PROCEDURE .........      0.09    0.01             0.04    0.01             0.14    0.01


 Currently Open Files (EXIT00)
 ====================

 Unit    Access Format  Status   Type       Ident (file)
 -------------------------------------------------------
   3      SEQ    FORM   TRANSP  NORMAL      LOGFILE
                                          ( logfile )

 ***************************************************************************************************
