
 *******************************************************************************
 *                                                                             *
 *  -------------------------------------                                      *
 *   Amsterdam Density Functional  (ADF)         2019                          *
 *  -------------------------------------                                      *
 *                                               r74351 2019-04-25             *
 *                                                                             *
 *                                                                             *
 *                            =====================                            *
 *                            |                   |                            *
 *                            |     D I R A C     |                            *
 *                            |                   |                            *
 *                            =====================                            *
 *                                                                             *
 *                                                                             *
 *   Online information and documentation:  https://www.scm.com/support/       *
 *   E-mail:  support@scm.com   info@scm.com                                   *
 *                                                                             *
 *   Scientific publications using ADF results must be properly referenced     *
 *   See the User Manuals (or the web site) for recommended citations          *
 *   The terms and conditions of the End User License Agreement apply to       *
 *   the use of ADF, https://www.scm.com/license-terms/                        *
 *                                                                             *
 **********************  x86_64_linux_intel / intelmpi  ************************
 
 Licensed to: Dr. Carles Bo / Institute of Chemical Research of Catalonia ( (ICIQ) / Tarragona / Spain 2022-11-28 14:37:29
 SCM User ID: u7609
  
 DIRAC 2019  RunTime: Feb09-2023 19:23:07  Nodes: 1  Procs: 1

 Temporary files are created in /scratch/kid_0.108303165

1
 MOLYBDENUM ATOM 3d CORE RELATIVISTIC, Point Nuc, A and c fro
 N J RN H ZN XION ANUC CLIGHT
 5000   15100.00000000197.36710137 42.00000000  0.00000000   97.905406  0.1370360E+03
  PH   PHI     EPS        DEL        DELRVR
  0.30  0.30     2500.00  0.00001000  0.00001000
 IDIRC  NC1  NDEBU NPRIN  IPUN IRCOR IWCOR
   1   300     0     0     0     0     9
   XALPHA      XLATTER      RNUC
  0.70000000  0.00000000  0.00000000 Point Charge
   XN   XL   XJ      XE          XZ      XDELL
  1.0  0.0  0.5   -1500.000       2.000     0.00000
  2.0  0.0  0.5    -325.000       2.000     0.00000
  2.0  1.0  0.5    -325.000       2.000     0.00000
  2.0  1.0  1.5    -325.000       4.000     0.00000
  3.0  0.0  0.5     -70.000       2.000     0.00000
  3.0  1.0  0.5     -70.000       2.000     0.00000
  3.0  1.0  1.5     -70.000       4.000     0.00000
  3.0  2.0  1.5     -60.000       4.000     0.00000
  3.0  2.0  2.5     -60.000       6.000     0.00000
  4.0  0.0  0.5     -10.000       2.000     0.00000
  4.0  1.0  0.5     -10.000       2.000     0.00000
  4.0  1.0  1.5     -10.000       4.000     0.00000
  4.0  2.0  1.5      -1.000       4.000     0.00000
  4.0  2.0  2.5      -1.000       1.000     0.00000
  5.0  0.0  0.5      -0.500       1.000     0.00000
 ICORP=  0  NPCL=  0  DEMP=0.00  PEPS=0.000000
 R(1)=  0.1000000E-08 D=  0.1005080E+01 RNUC=  0.0000000E+00
 converged at cycle   41  DENSITY AVERAGING    0.2400
  MAXIMUM ERROR IN R.V(R) IS   0.93203452E-05
 Q,EY,EV,EZ,ESUM,ETOT,RHO  0.420000E+02 -0.161898E+03 -0.662509E+04 -0.978397E+04 -0.242700E+04 -0.404691E+04  0.342495E-11


 DIRAC CALCULATION
1                    MOLYBDENUM ATOM 3d CORE RELATIVISTIC, Point Nuc, A and c from libtc


 EXCHANGE COEFFICIENT=  0.7000000           TAIL CORRECTION=  0.           NUCLEAR RADIUS=  0.000E+00
0                       ORBITAL    N    L    J     ELECTRONS     EIGENVALUE                DELTA OF EIGENV.

                          1S1/2  1.0  0.0  0.5     2.000       -0.7276812E+03                 0.2822496E-04
                          2S1/2  2.0  0.0  0.5     2.000       -0.1028194E+03                 0.1725465E-04
                          2P1/2  2.0  1.0  0.5     2.000       -0.9468016E+02                 0.1864325E-04
                          2P3/2  2.0  1.0  1.5     4.000       -0.9076266E+02                 0.1832345E-04
                          3S1/2  3.0  0.0  0.5     2.000       -0.1747094E+02                 0.5979346E-05
                          3P1/2  3.0  1.0  0.5     2.000       -0.1436574E+02                 0.6275079E-05
                          3P3/2  3.0  1.0  1.5     4.000       -0.1371946E+02                 0.5984426E-05
                          3D3/2  3.0  2.0  1.5     4.000       -0.8203697E+01                 0.6709395E-05
                          3D5/2  3.0  2.0  2.5     6.000       -0.8081013E+01                 0.6610438E-05
                          4S1/2  4.0  0.0  0.5     2.000       -0.2338238E+01                 0.2446887E-06
                          4P1/2  4.0  1.0  0.5     2.000       -0.1452045E+01                 0.2971982E-06
                          4P3/2  4.0  1.0  1.5     4.000       -0.1358936E+01                 0.3186552E-06
                          4D3/2  4.0  2.0  1.5     4.000       -0.1184046E+00                 0.3378248E-06
                          4D5/2  4.0  2.0  2.5     1.000       -0.1108976E+00                 0.3342679E-06
                          5S1/2  5.0  0.0  0.5     1.000       -0.1320069E+00                 0.9757102E-07


                                        NUCLEAR CHARGE=   42.000000
                            INTEGRAL OF CHARGE DENSITY=   42.000000
                           SUM OF THE ORBITAL ENERGIES=  -2426.9970
                                          TOTAL ENERGY=  -4046.9128
                                        KINETIC ENERGY=   4198.0886
                             NUCLEAR ATTRACTION ENERGY=  -9783.9685
                             ELECTRON REPULSION ENERGY=   1660.3903
                                       EXCHANGE ENERGY=   -121.4232

 *******************************************************************************

                             D I R A C   E X I T
 NORMAL TERMINATION



 =================
 Timing Statistics
 =================
  
 Total Used :                     CPU=        0.36      System=        0.00     Elapsed=        0.39

 Calls  Section                     ( Mean, Percentage )
 ---------------------------------------------------------------------------------------------------
     2  ><      ................      0.00    0.00             0.00    0.00             0.00    0.00
     1  EXIT PROCEDURE .........      0.36  100.00             0.00    0.00             0.39  100.00


 Currently Open Files (EXIT00)
 ====================

 Unit    Access Format  Status   Type       Ident (file)
 -------------------------------------------------------
   3      SEQ    FORM   TRANSP  NORMAL      LOGFILE
                                          ( logfile )
 
Create Mo   file=TZP-Mo.3d
XC
  GGA PBE
End
relativistic ZORA
Corepotentials t12.rel
End

 *******************************************************************************
 *                                                                             *
 *  -------------------------------------                                      *
 *   Amsterdam Density Functional  (ADF)         2019                          *
 *  -------------------------------------                                      *
 *                                               r74351 2019-04-25             *
 *                                                                             *
 *                                                                             *
 *                              =================                              *
 *                              |               |                              *
 *                              |     A D F     |                              *
 *                              |               |                              *
 *                              =================                              *
 *                                                                             *
 *                                                                             *
 *   Online information and documentation:  https://www.scm.com/support/       *
 *   E-mail:  support@scm.com   info@scm.com                                   *
 *                                                                             *
 *   Scientific publications using ADF results must be properly referenced     *
 *   See the User Manuals (or the web site) for recommended citations          *
 *   The terms and conditions of the End User License Agreement apply to       *
 *   the use of ADF, https://www.scm.com/license-terms/                        *
 *                                                                             *
 **********************  x86_64_linux_intel / intelmpi  ************************
 
 Licensed to: Dr. Carles Bo / Institute of Chemical Research of Catalonia ( (ICIQ) / Tarragona / Spain 2022-11-28 14:37:29
 SCM User ID: u7609
  
 ADF 2019  RunTime: Feb09-2023 19:23:07  Nodes: 1  Procs: 1

 Temporary files are created in /scratch/kid_0.462081267

 Molybdenum (TZP, 3d frozen)



 ===========================
 A T T A C H E D   F I L E S
 ===========================
  
 CREATE - Data File:    TZP-Mo.3d
                        Molybdenum (TZP, 3d frozen)
 Core Potentials:
         file : t12.rel



 ===============================
 M O D E L   P A R A M E T E R S
 ===============================
  
 DENSITY FUNCTIONAL POTENTIAL (scf)
    LDA:                               PW92                                    == Not Default ==
    Gradient Corrections:              PBEc PBEx                               == Not Default ==

 SPIN  (restricted / unrestr.)
    Molecule:                          Restricted                               

 OTHER ASPECTS
    Relativistic Corrections:          scalar (ZORA,MAPA)                      == Not Default ==

    Nuclear Charge Density Model:      Point Charge Nuclei                      
    Core Treatment:                    Frozen Orbital(s)                        

    Hyperfine or Zeeman Interaction:   ---                                      



 =====================================
 S Y M M E T R Y ,   E L E C T R O N S
 =====================================
  
 Symmetry: ATOM

 Irreducible Representations, including subspecies
 -------------------------------------------------
 S
 P:x  P:y  P:z
 D:z2  D:x2-y2  D:xy  D:xz  D:yz
 F:z3  F:z  F:xyz  F:z2x  F:z2y  F:x  F:y


 Configuration of Valence Electrons
 ==================================

          Occupation Numbers
          -------------------------------------------------
 S        2 1
 P        6
 D        5
 F        0
          -------------------------------------------------

 Total:   14

 Net Charge: 0 (Nuclei minus Electrons)

 Preset values for MO occupations will be applied through SCF cycle no. 1000000
 Thereafter, the program will assign electrons to MOs that are spatially
 similar to the occupied MOs in a "reference" cycle ("KeepOrbitals").
 The reference cycle is always the PREVIOUS cycle: it will evolve with
 the SCF procedure.



 ================================
 (Slater-type)  F U N C T I O N S  ***  (Basis and Fit)  ***
 ================================
  

 Atom Type    1  (Mo)
 ==============

 Valence Basis Sets:  18
 -----------------------
   1 S   30.500000
   2 S   17.750000
   3 S    8.350000
   2 P   18.600000
   3 P    8.700000
   3 D   10.050000
   4 S    5.100000
   4 S    3.300000
   5 S    2.150000
   5 S    1.350000
   5 S    0.870000
   4 P    4.950000
   4 P    3.300000
   4 P    2.300000
   4 D    3.500000
   4 D    1.850000
   4 D    0.970000
   5 P    1.350000

 Frozen Core Shells
 ------------------
    S:  3
    P:  2
    D:  1


 BAS: List of all Elementary Cartesian Basis Functions
 =====================================================

 The numbering in the list below (to the right of the function characteristics) is referred
 to in print-outs of MO eigenvectors and Mulliken populations in the BAS representation
 (as contrasted to the SFO representation).

 Notes:
 1. The functions are characterized by a polynomial prefactor (powers of x,y,z and r) and
    an exponential decay factor alpha.
 2. Since the basis sets are specific for an atom TYPE, the individual functions occur on
    all atoms of that type.
 3. The word 'Core' in the left margin signals that it is a Core Function (CF) : not a
    degree of freedom in the valence set, but only used to ensure orthogonalization of
    the other valence basis functions on the frozen Core Orbitals.


 (power of) X  Y  Z  R     Alpha  on Atom
            ==========     =====     ==========

 Mo                                   1
                                  ---------------------------------------------------------------------------
    Core    0  0  0  0    30.500      1
    Core    0  0  0  1    17.750      2
    Core    0  0  0  2     8.350      3
    Core    1  0  0  0    18.600      4
    Core    0  1  0  0    18.600      5
    Core    0  0  1  0    18.600      6
    Core    1  0  0  1     8.700      7
    Core    0  1  0  1     8.700      8
    Core    0  0  1  1     8.700      9
    Core    2  0  0  0    10.050     10
    Core    1  1  0  0    10.050     11
    Core    1  0  1  0    10.050     12
    Core    0  2  0  0    10.050     13
    Core    0  1  1  0    10.050     14
    Core    0  0  2  0    10.050     15
            0  0  0  3     5.100     16
            0  0  0  3     3.300     17
            0  0  0  4     2.150     18
            0  0  0  4     1.350     19
            0  0  0  4     0.870     20
            1  0  0  2     4.950     21
            0  1  0  2     4.950     22
            0  0  1  2     4.950     23
            1  0  0  2     3.300     24
            0  1  0  2     3.300     25
            0  0  1  2     3.300     26
            1  0  0  2     2.300     27
            0  1  0  2     2.300     28
            0  0  1  2     2.300     29
            2  0  0  1     3.500     30
            1  1  0  1     3.500     31
            1  0  1  1     3.500     32
            0  2  0  1     3.500     33
            0  1  1  1     3.500     34
            0  0  2  1     3.500     35
            2  0  0  1     1.850     36
            1  1  0  1     1.850     37
            1  0  1  1     1.850     38
            0  2  0  1     1.850     39
            0  1  1  1     1.850     40
            0  0  2  1     1.850     41
            2  0  0  1     0.970     42
            1  1  0  1     0.970     43
            1  0  1  1     0.970     44
            0  2  0  1     0.970     45
            0  1  1  1     0.970     46
            0  0  2  1     0.970     47
            1  0  0  3     1.350     48
            0  1  0  3     1.350     49
            0  0  1  3     1.350     50

 Total number of charge fitting functions (nprimf)       230
 Total number of Cartesian basis functions (naos)         50
 Total number of Cartesian core functions  (ncos)         15



 BAS: List of all Elementary Cartesian Basis Functions
 =====================================================

 The numbering in the list below (to the right of the function characteristics) is referred
 to in print-outs of MO eigenvectors and Mulliken populations in the BAS representation
 (as contrasted to the SFO representation).

 Notes:
 1. The functions are characterized by a polynomial prefactor (powers of x,y,z and r) and
    an exponential decay factor alpha.
 2. Since the basis sets are specific for an atom TYPE, the individual functions occur on
    all atoms of that type.
 3. The word 'Core' in the left margin signals that it is a Core Function (CF) : not a
    degree of freedom in the valence set, but only used to ensure orthogonalization of
    the other valence basis functions on the frozen Core Orbitals.


 (power of) X  Y  Z  R     Alpha  on Atom
            ==========     =====     ==========

 Mo                                   1
                                  ---------------------------------------------------------------------------
    Core    0  0  0  0    30.500      1
    Core    0  0  0  1    17.750      2
    Core    0  0  0  2     8.350      3
    Core    1  0  0  0    18.600      4
    Core    0  1  0  0    18.600      5
    Core    0  0  1  0    18.600      6
    Core    1  0  0  1     8.700      7
    Core    0  1  0  1     8.700      8
    Core    0  0  1  1     8.700      9
    Core    2  0  0  0    10.050     10
    Core    1  1  0  0    10.050     11
    Core    1  0  1  0    10.050     12
    Core    0  2  0  0    10.050     13
    Core    0  1  1  0    10.050     14
    Core    0  0  2  0    10.050     15
            0  0  0  3     5.100     16
            0  0  0  3     3.300     17
            0  0  0  4     2.150     18
            0  0  0  4     1.350     19
            0  0  0  4     0.870     20
            1  0  0  2     4.950     21
            0  1  0  2     4.950     22
            0  0  1  2     4.950     23
            1  0  0  2     3.300     24
            0  1  0  2     3.300     25
            0  0  1  2     3.300     26
            1  0  0  2     2.300     27
            0  1  0  2     2.300     28
            0  0  1  2     2.300     29
            2  0  0  1     3.500     30
            1  1  0  1     3.500     31
            1  0  1  1     3.500     32
            0  2  0  1     3.500     33
            0  1  1  1     3.500     34
            0  0  2  1     3.500     35
            2  0  0  1     1.850     36
            1  1  0  1     1.850     37
            1  0  1  1     1.850     38
            0  2  0  1     1.850     39
            0  1  1  1     1.850     40
            0  0  2  1     1.850     41
            2  0  0  1     0.970     42
            1  1  0  1     0.970     43
            1  0  1  1     0.970     44
            0  2  0  1     0.970     45
            0  1  1  1     0.970     46
            0  0  2  1     0.970     47
            1  0  0  3     1.350     48
            0  1  0  3     1.350     49
            0  0  1  3     1.350     50
1
 ***************************************************************************************************



                                              ***********************
                                              *  T E C H N I C A L  *
                                              ***********************
  



 =============================================================
 P A R A L L E L I Z A T I O N  and  V E C T O R I Z A T I O N
 =============================================================
  
 Nr of parallel processes:                                1
 Maximum vector length in NumInt loops:                 128



 =====================
 S C F   U P D A T E S
 =====================
  
 Max. nr. of cycles:                               300
 Convergence criterion:                              0.0000000100
   secondary criterion:                              0.0000000100

 Mix parameter (when DIIS does not apply):           0.2000000000
 Special mix parameter for the first cycle:          1.0000000000
 Mixed ADIIS+SDIIS will be used                  
    Max number of expansion vectors:                10
    Pure ADIIS when Max([F,P]) is above              0.1000000000
    Pure SDIIS when Max([F,P]) is below              0.0010000000
 Automatic ElectronSmearing (in case of problematic SCF convergence) disabled



 =================
 P R E C I S I O N  ***  (General: NumInt, NeglectFunctionTails, ...)  ***
 =================
  

 NumInt:           Target precision:                12.0000000000
 -------           Initial precision:               10.0000000000
                   Min. precision (optimization):   10.0000000000

 Neglect Functions:          Basis functions:        0.1000000000E-13
 ------------------          Fit functions:          0.1000000000E-13



 ===========================
 L I N E A R   S C A L I N G
 ===========================
  

 Cut-off radii density fit:                        0.1000000000E-97
 Overlap cut-off criterion AO matrix elements:     0.1000000000E-97
 Cut-offs for Coulomb potential and fitted density:0.1000000000E-97
 Cut-off criterion for Coulomb multipole terms:    0.1000000000E-97
 Progressive Convergence parameter:                 0.000000000    
1
 ***************************************************************************************************



                                            ***************************
                                            *  C O M P U T A T I O N  *
                                            ***************************
  

 Number of elements of the density matrix on this node (used, total):      1275      1275



 ===========================================
 Numerical Integration : Fuzzy Cells (Becke)
 ===========================================
  
 Becke grid quality: VERYGOOD       
  
 Lebedev angular grid order:             min:  13 max:  41
 Nr. of radial points:                   min: 106 max: 106

 Total nr. of points:        106
 Nr. of blocks:                1
 Block length:               106
 Nr. of dummy points:          0


 Test of Precision of the Numerical Integration Grid
 ===================================================

 Integral of the Total Core Density:                  28.00000000969493
 Relative Error:                                       3.462E-10



 ========================
 Density Fitting (zlmFit)
 ========================
  
 ZlmFit Fit Quality: VERYGOOD       
  
 Max L-expansion:                        min:   0 max:   0
 Nr. of radial interpolation points:     min: 230 max: 230



 =====
 S C F  ***  ScaSCF  ***
 =====
  

 CYCLE    1
 SCF Error: norm([F,P])=      0.000000000000, max([F,P])=      0.000000000000
 orbitals (Q,E):
 ---------------
 S :1...5            ( 2.00   -11.6814)  ( 1.00    -6.3532)  ( 0.00    -3.9976)  ( 0.00    -2.6589)
                     ( 0.00    -1.7000)
 P :1...4            ( 6.00   -10.5018)  ( 0.00    -5.8212)  ( 0.00    -3.6400)  ( 0.00    -2.5070)
 D :1...3            ( 5.00    -8.4786)  ( 0.00    -4.5701)  ( 0.00    -2.4939)

 CYCLE    2
  SDIIS (wt  0.000):  1.0000  0.0000
 A-DIIS (wt  1.000):  0.1286  0.8714
  DIIS coefficients:  0.1286  0.8714
 SCF Error: norm([F,P])=      7.148790686087, max([F,P])=      2.364314963741
 orbitals (Q,E):
 ---------------
 S :1...3            ( 2.00    -1.8793)  ( 1.00    -0.4080)  ( 0.00    -0.1761)
 P :1...2            ( 6.00    -1.0989)  ( 0.00    -0.2723)
 D :1...2            ( 5.00    -0.2758)  ( 0.00    -0.0263)

 CYCLE    3
  SDIIS (wt  0.000):  0.3519  0.6481
 A-DIIS (wt  1.000):  0.2376  0.7624
  DIIS coefficients:  0.2376  0.7624
 SCF Error: norm([F,P])=      4.212278243430, max([F,P])=      1.568530983970
 orbitals (Q,E):
 ---------------
 S :1...3            ( 2.00    -3.0898)  ( 1.00    -0.3551)  ( 0.00    -0.0106)
 P :1...2            ( 6.00    -2.0988)  ( 0.00    -0.1560)
 D :1...2            ( 5.00    -0.6568)  ( 0.00     0.0486)

 CYCLE    4
  SDIIS (wt  0.000): -0.0802  0.2380  0.8422
 A-DIIS (wt  1.000):  0.0000  0.2131  0.7869
  DIIS coefficients:  0.0000  0.2131  0.7869
 SCF Error: norm([F,P])=      1.823310320672, max([F,P])=      0.621470068658
 orbitals (Q,E):
 ---------------
 S :1...3            ( 2.00    -2.1329)  ( 1.00    -0.1098)  ( 0.00     0.0530)
 P :1...2            ( 6.00    -1.2112)  ( 0.00     0.0122)
 D :1...2            ( 5.00    -0.0245)  ( 0.00     0.1765)

 CYCLE    5
  SDIIS (wt  0.000): -0.0246 -0.0857  0.3373  0.7730
 A-DIIS (wt  1.000):  0.0000  0.0000  0.3000  0.7000
  DIIS coefficients:  0.0000  0.0000  0.3000  0.7000
 SCF Error: norm([F,P])=      1.058828219057, max([F,P])=      0.362553371378
 orbitals (Q,E):
 ---------------
 S :1...3            ( 2.00    -2.5065)  ( 1.00    -0.1954)  ( 0.00     0.0191)
 P :1...2            ( 6.00    -1.5530)  ( 0.00    -0.0541)
 D :1...2            ( 5.00    -0.2373)  ( 0.00     0.1039)

 CYCLE    6
  SDIIS (wt  0.000):  0.0107 -0.0168 -0.1404  0.2233  0.9231
 A-DIIS (wt  1.000):  0.0000  0.0000  0.0000  0.1685  0.8315
  DIIS coefficients:  0.0000  0.0000  0.0000  0.1685  0.8315
 SCF Error: norm([F,P])=      0.386302370665, max([F,P])=      0.125926487743
 orbitals (Q,E):
 ---------------
 S :1...3            ( 2.00    -2.2911)  ( 1.00    -0.1348)  ( 0.00     0.0380)
 P :1...2            ( 6.00    -1.3509)  ( 0.00    -0.0079)
 D :1...2            ( 5.00    -0.0948)  ( 0.00     0.1449)

 CYCLE    7
  SDIIS (wt  0.044): -0.0008  0.0043  0.0172 -0.1816  0.1952  0.9657
 A-DIIS (wt  0.956):  0.0000  0.0000  0.0000  0.0000  0.3526  0.6474
  DIIS coefficients: -0.0000  0.0002  0.0008 -0.0081  0.3456  0.6615
 SCF Error: norm([F,P])=      0.284734623559, max([F,P])=      0.095612429384
 orbitals (Q,E):
 ---------------
 S :1...3            ( 2.00    -2.3844)  ( 1.00    -0.1556)  ( 0.00     0.0295)
 P :1...2            ( 6.00    -1.4366)  ( 0.00    -0.0239)
 D :1...2            ( 5.00    -0.1494)  ( 0.00     0.1281)

 CYCLE    8
  SDIIS (wt  0.772):  0.0000  0.0002 -0.0034 -0.0193  0.0076  0.2482  0.7667
 A-DIIS (wt  0.228):  0.0000  0.0000  0.0000  0.0000  0.0000  0.0289  0.9711
  DIIS coefficients:  0.0000  0.0002 -0.0026 -0.0149  0.0058  0.1982  0.8133
 SCF Error: norm([F,P])=      0.070427042512, max([F,P])=      0.023581757016
 orbitals (Q,E):
 ---------------
 S :1...3            ( 2.00    -2.3580)  ( 1.00    -0.1494)  ( 0.00     0.0311)
 P :1...2            ( 6.00    -1.4122)  ( 0.00    -0.0192)
 D :1...2            ( 5.00    -0.1332)  ( 0.00     0.1325)

 CYCLE    9
  SDIIS (wt  0.929): -0.0000 -0.0000  0.0002  0.0020 -0.0040 -0.0349  0.1906  0.8461
 A-DIIS (wt  0.071):  0.0000  0.0000  0.0000  0.0000  0.0000  0.0000  0.1077  0.8923
  DIIS coefficients: -0.0000 -0.0000  0.0002  0.0018 -0.0037 -0.0324  0.1847  0.8494
 SCF Error: norm([F,P])=      0.024021634807, max([F,P])=      0.008070140854
 orbitals (Q,E):
 ---------------
 S :1...3            ( 2.00    -2.3650)  ( 1.00    -0.1511)  ( 0.00     0.0305)
 P :1...2            ( 6.00    -1.4187)  ( 0.00    -0.0205)
 D :1...2            ( 5.00    -0.1375)  ( 0.00     0.1313)

 CYCLE   10
  SDIIS (wt  1.000):  0.0000  0.0000 -0.0000 -0.0003  0.0006  0.0038 -0.0155  1.0114
  DIIS coefficients:  0.0000  0.0000 -0.0000 -0.0003  0.0006  0.0038 -0.0155  1.0114
 SCF Error: norm([F,P])=      0.001691537232, max([F,P])=      0.000569379855
 orbitals (Q,E):
 ---------------
 S :1...3            ( 2.00    -2.3645)  ( 1.00    -0.1510)  ( 0.00     0.0305)
 P :1...2            ( 6.00    -1.4182)  ( 0.00    -0.0204)
 D :1...2            ( 5.00    -0.1372)  ( 0.00     0.1314)

 CYCLE   11
  SDIIS (wt  1.000):  0.0000 -0.0000  0.0000  0.0002 -0.0008 -0.0102 -0.0868  1.0976
  DIIS coefficients:  0.0000 -0.0000  0.0000  0.0002 -0.0008 -0.0102 -0.0868  1.0976
 SCF Error: norm([F,P])=      0.000000816018, max([F,P])=      0.000000266639
 orbitals (Q,E):
 ---------------
 S :1...3            ( 2.00    -2.3645)  ( 1.00    -0.1510)  ( 0.00     0.0305)
 P :1...2            ( 6.00    -1.4182)  ( 0.00    -0.0204)
 D :1...2            ( 5.00    -0.1372)  ( 0.00     0.1314)

 CYCLE   12
  SDIIS (wt  1.000): -0.0000  0.0000  0.0001  0.0011  0.0118  0.9869
  DIIS coefficients: -0.0000  0.0000  0.0001  0.0011  0.0118  0.9869
 SCF Error: norm([F,P])=      0.000000024268, max([F,P])=      0.000000008564
 orbitals (Q,E):
 ---------------
 S :1...3            ( 2.00    -2.3645)  ( 1.00    -0.1510)  ( 0.00     0.0305)
 P :1...2            ( 6.00    -1.4182)  ( 0.00    -0.0204)
 D :1...2            ( 5.00    -0.1372)  ( 0.00     0.1314)

 SCF CONVERGED

 CYCLE   13
1
 ***************************************************************************************************



                                                *******************
                                                *  R E S U L T S  *
                                                *******************
  
 *** Using FIT density in Focky
  SDIIS (wt  1.000):  0.0000  0.0000 -0.0009 -0.0131  1.0139
  DIIS coefficients:  0.0000  0.0000 -0.0009 -0.0131  1.0139
 SCF Error: norm([F,P])=      0.000000001716, max([F,P])=      0.000000000646

 Scaled ZORA Orbital Energies, per Irrep and Spin:
 =================================================
                        Occup              E (au)              E (eV)       Diff (eV) with prev. cycle
                        -----      --------------------        ------       --------------------------
 S
               1        2.000     -0.23645412461087E+01       -64.342               1.08E-08
               2        1.000     -0.15095063251582E+00        -4.108               1.52E-08
               3        0.000      0.30491108737404E-01         0.830
               4        0.000      0.39955981712578E+00        10.873
               5        0.000      0.28259043504195E+01        76.897
 P
               1        6.000     -0.14182481541156E+01       -38.592               1.24E-08
               2        0.000     -0.20381990593673E-01        -0.555
               3        0.000      0.61122831684606E+00        16.632
               4        0.000      0.40294008516846E+01       109.646
 D
               1        5.000     -0.13719857998971E+00        -3.733               1.57E-08
               2        0.000      0.13138303481334E+00         3.575
               3        0.000      0.10915573963069E+01        29.703


 Partially Occupied:
               2 S                -0.15095063251582E+00
               1 D                -0.13719857998971E+00
  
 HOMO :        1 P                -0.14182481541156E+01
 LUMO :        2 P                -0.20381990593673E-01
  


 Orbital Energies, all Irreps
 ========================================

 Irrep        no.  (spin)   Occup              E (au)                E (eV)
 ---------------------------------------------------------------------------
 S             1             2.00       -0.23645412461087E+01       -64.3424
 P             1             6.00       -0.14182481541156E+01       -38.5925
 S             2             1.00       -0.15095063251582E+00        -4.1076
 D             1             5.00       -0.13719857998971E+00        -3.7334
 P             2             0.00       -0.20381990593673E-01        -0.5546
 S             3             0.00        0.30491108737404E-01         0.8297
 D             2             0.00        0.13138303481334E+00         3.5751
 S             4             0.00        0.39955981712578E+00        10.8726
 P             3             0.00        0.61122831684606E+00        16.6324
 D             3             0.00        0.10915573963069E+01        29.7028
 S             5             0.00        0.28259043504195E+01        76.8968
 P             4             0.00        0.40294008516846E+01       109.6456


 Scaled ZORA Orbital Energies of the Core Orbitals:
 ==================================================

 (Note that the atoms are grouped by atomtype, see the labels, and may hence NOT be in input order)

 AtomType  Orbital  Atom                   E (au)                        E (eV)
 --------  -------  ----           --------------------        ----------------
 Mo          1S        1          -0.72810156987753E+03              -19812.652
             2S        1          -0.10281078869890E+03               -2797.624
             3S        1          -0.17490063510859E+02                -475.929
             2P        1          -0.91890973277880E+02               -2500.481
             3P        1          -0.13936907885645E+02                -379.243
             3D        1          -0.81284558211672E+01                -221.187



 =======================================
 M U L L I K E N   P O P U L A T I O N S
 =======================================
  
 The survey below gives for each atom:
 a) the total charge (Z minus electrons)
 b) the net spin polarization (nr of electrons spin-A minus spin-B)
 c) for each spin the atomic electron valence density (integrated) per L-value.

 Atom              Charge    Spin density          S         P         D         F
 ----              ------    ------------       ------    ------    ------    ------
 1 Mo              0.0000                       3.0000    6.0000    5.0000    0.0000

 Populations of individual BAS functions
 ----------------------------------------
 1 Mo          -0.0051  0.0033 -0.0315  0.0008  0.0008  0.0008  0.0345  0.0345  0.0345  0.0153
                0.0230  0.0230  0.0153  0.0230  0.0153  1.3114  0.7310  0.3903  0.5032  0.0973
                0.7293  0.7293  0.7293  1.1024  1.1024  1.1024  0.1310  0.1310  0.1310  0.2744
                0.4116  0.4116  0.2744  0.4116  0.2744  0.3155  0.4732  0.4732  0.3155  0.4732
                0.3155  0.0615  0.0922  0.0922  0.0615  0.0922  0.0615  0.0019  0.0019  0.0019

 Gross Charges per Atom (Z minus electrons)
 ==========================================
             0.0000
 Net Total:  0.00000000



 =======================================================================
 Electrostatic potential at the Nuclei due to electrons and other nuclei
 =======================================================================
  
         Atom                  Potential
         ----                  ---------
     1)   Mo                232.78835403
 
 
 ========================
 No memory problems found
 ========================
 
 Maximum number of active allocate calls:         389
 
 *******************************************************************************

                             A D F   E X I T
 NORMAL TERMINATION



 =================
 Timing Statistics
 =================
  
 Total Used :                     CPU=        0.67      System=        0.03     Elapsed=        0.75

 Calls  Section                     ( Mean, Percentage )
 ---------------------------------------------------------------------------------------------------
     3  ><      ................      0.00    0.60             0.00    0.00             0.00    0.59
     1  INIT    ................      0.06    9.52             0.00   14.29             0.09   11.94
     1  GEOMET  ................      0.01    1.79             0.01   28.57             0.03    3.38
     1  INPUTA  ................      0.00    0.60             0.00    0.00             0.00    0.47
     1  MAINSY  ................      0.01    1.79             0.00    0.00             0.02    2.41
     1  SYMFIT  ................      0.00    0.60             0.00    0.00             0.00    0.21
     1  CORORT  ................      0.00    0.00             0.00    0.00             0.00    0.22
     1  SYMORB  ................      0.00    0.00             0.00    0.00             0.00    0.12
     1  CLSMAT  ................      0.00    0.60             0.00    0.00             0.01    0.71
     1  ORTHON  ................      0.01    1.19             0.00    0.00             0.01    0.72
     1  GENPT   ................      0.02    2.98             0.00    0.00             0.02    2.75
     1  PTBAS   ................      0.00    0.60             0.00    0.00             0.01    0.72
    13  FOCKY   ................      0.04   68.45             0.00   28.57             0.04   62.61
    13  FOCKTR  ................      0.00    1.19             0.00    0.00             0.00    1.08
    13  SDIIS   ................      0.00    3.57             0.00    0.00             0.00    4.67
     1  COREPS  ................      0.03    4.76             0.00    0.00             0.03    4.47
     1  POPAN   ................      0.00    0.60             0.00    0.00             0.00    0.64
     1  DEBYE   ................      0.00    0.00             0.00    0.00             0.00    0.26
     1  EXIT PROCEDURE .........      0.01    1.19             0.01   28.57             0.02    2.00


 Currently Open Files (EXIT00)
 ====================

 Unit    Access Format  Status   Type       Ident (file)
 -------------------------------------------------------
   3      SEQ    FORM   TRANSP  NORMAL      LOGFILE
                                          ( logfile )

 ***************************************************************************************************
 (LOGFILE)
 <Feb09-2023> <19:23:07>  DIRAC 2019  RunTime: Feb09-2023 19:23:07  Nodes: 1  Procs: 1
 <Feb09-2023> <19:23:07>  NORMAL TERMINATION
 <Feb09-2023> <19:23:07>  END
 <Feb09-2023> <19:23:07>  ADF 2019  RunTime: Feb09-2023 19:23:07  Nodes: 1  Procs: 1
 <Feb09-2023> <19:23:07>  Molybdenum (TZP, 3d frozen)
 <Feb09-2023> <19:23:07>  RunType   : CREATE
 <Feb09-2023> <19:23:07>  Net Charge: 0 (Nuclei minus Electrons)
 <Feb09-2023> <19:23:07>  Symmetry  : ATOM
  Coordinates
    Atom         X           Y           Z   (Angstrom)
    1.Mo        0.000000    0.000000    0.000000
 <Feb09-2023> <19:23:07>  >>>> CORORT
 <Feb09-2023> <19:23:07>  >>>> CLSMAT
 <Feb09-2023> <19:23:07>  >>>> ORTHON
 <Feb09-2023> <19:23:07>  >>>> GENPT
 <Feb09-2023> <19:23:07>  Block Length= 106
 <Feb09-2023> <19:23:07>  >>>> PTBAS
 <Feb09-2023> <19:23:07>  >>>> CYCLE
 <Feb09-2023> <19:23:07>              |Error|         MaxErr       Wt(A-DIIS)
 <Feb09-2023> <19:23:07>      1      0.00000000      0.00000000
 <Feb09-2023> <19:23:07>      2      7.14879069      2.36431496    100.0
 <Feb09-2023> <19:23:07>      3      4.21227824      1.56853098    100.0
 <Feb09-2023> <19:23:07>      4      1.82331032      0.62147007    100.0
 <Feb09-2023> <19:23:07>      5      1.05882822      0.36255337    100.0
 <Feb09-2023> <19:23:07>      6      0.38630237      0.12592649    100.0
 <Feb09-2023> <19:23:08>      7      0.28473462      0.09561243     95.6
 <Feb09-2023> <19:23:08>      8      0.07042704      0.02358176     22.8
 <Feb09-2023> <19:23:08>      9      0.02402163      0.00807014      7.1
 <Feb09-2023> <19:23:08>     10      0.00169154      0.00056938      0.0
 <Feb09-2023> <19:23:08>     11      0.00000082      0.00000027      0.0
 <Feb09-2023> <19:23:08>     12      0.00000002      0.00000001      0.0
 <Feb09-2023> <19:23:08>  SCF converged
 <Feb09-2023> <19:23:08>     13      0.00000000      0.00000000      0.0
 <Feb09-2023> <19:23:08>  >>>> POPAN
 <Feb09-2023> <19:23:08>  >>>> DEBYE
 <Feb09-2023> <19:23:08>  NORMAL TERMINATION
 <Feb09-2023> <19:23:08>  END

 *******************************************************************************
 *                                                                             *
 *  -------------------------------------                                      *
 *   Amsterdam Density Functional  (ADF)         2019                          *
 *  -------------------------------------                                      *
 *                                               r74351 2019-04-25             *
 *                                                                             *
 *                                                                             *
 *                            =====================                            *
 *                            |                   |                            *
 *                            |     D I R A C     |                            *
 *                            |                   |                            *
 *                            =====================                            *
 *                                                                             *
 *                                                                             *
 *   Online information and documentation:  https://www.scm.com/support/       *
 *   E-mail:  support@scm.com   info@scm.com                                   *
 *                                                                             *
 *   Scientific publications using ADF results must be properly referenced     *
 *   See the User Manuals (or the web site) for recommended citations          *
 *   The terms and conditions of the End User License Agreement apply to       *
 *   the use of ADF, https://www.scm.com/license-terms/                        *
 *                                                                             *
 **********************  x86_64_linux_intel / intelmpi  ************************
 
 Licensed to: Dr. Carles Bo / Institute of Chemical Research of Catalonia ( (ICIQ) / Tarragona / Spain 2022-11-28 14:37:29
 SCM User ID: u7609
  
 DIRAC 2019  RunTime: Feb09-2023 19:23:08  Nodes: 1  Procs: 1

 Temporary files are created in /scratch/kid_0.308164153

1
 OXYGEN ATOM 1s CORE RELATIVISTIC, Point Nuc, A and c from li
 N J RN H ZN XION ANUC CLIGHT
 5000    4100.00000000197.36710137  8.00000000  0.00000000   15.994914  0.1370360E+03
  PH   PHI     EPS        DEL        DELRVR
  0.30  0.30     2500.00  0.00001000  0.00001000
 IDIRC  NC1  NDEBU NPRIN  IPUN IRCOR IWCOR
   1   300     0     0     0     0     1
   XALPHA      XLATTER      RNUC
  0.70000000  0.00000000  0.00000000 Point Charge
   XN   XL   XJ      XE          XZ      XDELL
  1.0  0.0  0.5      -5.000       2.000     0.00000
  2.0  0.0  0.5      -1.000       2.000     0.00000
  2.0  1.0  0.5      -1.000       2.000     0.00000
  2.0  1.0  1.5      -1.000       2.000     0.00000
 ICORP=  0  NPCL=  0  DEMP=0.00  PEPS=0.000000
 R(1)=  0.1000000E-08 D=  0.1005080E+01 RNUC=  0.0000000E+00
 converged at cycle   28  DENSITY AVERAGING    0.2400
  MAXIMUM ERROR IN R.V(R) IS   0.81125670E-05
 Q,EY,EV,EZ,ESUM,ETOT,RHO  0.800000E+01 -0.101247E+02 -0.114961E+03 -0.177573E+03 -0.405053E+02 -0.743427E+02  0.414766E-14


 DIRAC CALCULATION
1                    OXYGEN ATOM 1s CORE RELATIVISTIC, Point Nuc, A and c from libtc


 EXCHANGE COEFFICIENT=  0.7000000           TAIL CORRECTION=  0.           NUCLEAR RADIUS=  0.000E+00
0                       ORBITAL    N    L    J     ELECTRONS     EIGENVALUE                DELTA OF EIGENV.

                          1S1/2  1.0  0.0  0.5     2.000       -0.1880014E+02                 0.7264358E-06
                          2S1/2  2.0  0.0  0.5     2.000       -0.8412236E+00                 0.5932752E-05
                          2P1/2  2.0  1.0  0.5     2.000       -0.3063203E+00                 0.5998471E-05
                          2P3/2  2.0  1.0  1.5     2.000       -0.3049609E+00                 0.5986971E-05


                                        NUCLEAR CHARGE=    8.000000
                            INTEGRAL OF CHARGE DENSITY=    8.000000
                           SUM OF THE ORBITAL ENERGIES=    -40.5053
                                          TOTAL ENERGY=    -74.3427
                                        KINETIC ENERGY=     74.4552
                             NUCLEAR ATTRACTION ENERGY=   -177.5730
                             ELECTRON REPULSION ENERGY=     36.3686
                                       EXCHANGE ENERGY=     -7.5935

 *******************************************************************************

                             D I R A C   E X I T
 NORMAL TERMINATION



 =================
 Timing Statistics
 =================
  
 Total Used :                     CPU=        0.10      System=        0.00     Elapsed=        0.12

 Calls  Section                     ( Mean, Percentage )
 ---------------------------------------------------------------------------------------------------
     2  ><      ................      0.00    0.00             0.00    0.00             0.00    0.01
     1  EXIT PROCEDURE .........      0.10  100.00             0.00  100.00             0.12   99.99


 Currently Open Files (EXIT00)
 ====================

 Unit    Access Format  Status   Type       Ident (file)
 -------------------------------------------------------
   3      SEQ    FORM   TRANSP  NORMAL      LOGFILE
                                          ( logfile )
 
Create O   file=TZP-O.1s
XC
  GGA PBE
End
relativistic ZORA
Corepotentials t12.rel
End

 *******************************************************************************
 *                                                                             *
 *  -------------------------------------                                      *
 *   Amsterdam Density Functional  (ADF)         2019                          *
 *  -------------------------------------                                      *
 *                                               r74351 2019-04-25             *
 *                                                                             *
 *                                                                             *
 *                              =================                              *
 *                              |               |                              *
 *                              |     A D F     |                              *
 *                              |               |                              *
 *                              =================                              *
 *                                                                             *
 *                                                                             *
 *   Online information and documentation:  https://www.scm.com/support/       *
 *   E-mail:  support@scm.com   info@scm.com                                   *
 *                                                                             *
 *   Scientific publications using ADF results must be properly referenced     *
 *   See the User Manuals (or the web site) for recommended citations          *
 *   The terms and conditions of the End User License Agreement apply to       *
 *   the use of ADF, https://www.scm.com/license-terms/                        *
 *                                                                             *
 **********************  x86_64_linux_intel / intelmpi  ************************
 
 Licensed to: Dr. Carles Bo / Institute of Chemical Research of Catalonia ( (ICIQ) / Tarragona / Spain 2022-11-28 14:37:29
 SCM User ID: u7609
  
 ADF 2019  RunTime: Feb09-2023 19:23:08  Nodes: 1  Procs: 1

 Temporary files are created in /scratch/kid_0.75961355

 Oxygen (TZP, 1s frozen)



 ===========================
 A T T A C H E D   F I L E S
 ===========================
  
 CREATE - Data File:    TZP-O.1s
                        Oxygen (TZP, 1s frozen)
 Core Potentials:
         file : t12.rel



 ===============================
 M O D E L   P A R A M E T E R S
 ===============================
  
 DENSITY FUNCTIONAL POTENTIAL (scf)
    LDA:                               PW92                                    == Not Default ==
    Gradient Corrections:              PBEc PBEx                               == Not Default ==

 SPIN  (restricted / unrestr.)
    Molecule:                          Restricted                               

 OTHER ASPECTS
    Relativistic Corrections:          scalar (ZORA,MAPA)                      == Not Default ==

    Nuclear Charge Density Model:      Point Charge Nuclei                      
    Core Treatment:                    Frozen Orbital(s)                        

    Hyperfine or Zeeman Interaction:   ---                                      



 =====================================
 S Y M M E T R Y ,   E L E C T R O N S
 =====================================
  
 Symmetry: ATOM

 Irreducible Representations, including subspecies
 -------------------------------------------------
 S
 P:x  P:y  P:z
 D:z2  D:x2-y2  D:xy  D:xz  D:yz
 F:z3  F:z  F:xyz  F:z2x  F:z2y  F:x  F:y


 Configuration of Valence Electrons
 ==================================

          Occupation Numbers
          -------------------------------------------------
 S        2
 P        4
 D        0
 F        0
          -------------------------------------------------

 Total:   6

 Net Charge: 0 (Nuclei minus Electrons)

 Preset values for MO occupations will be applied through SCF cycle no. 1000000
 Thereafter, the program will assign electrons to MOs that are spatially
 similar to the occupied MOs in a "reference" cycle ("KeepOrbitals").
 The reference cycle is always the PREVIOUS cycle: it will evolve with
 the SCF procedure.



 ================================
 (Slater-type)  F U N C T I O N S  ***  (Basis and Fit)  ***
 ================================
  

 Atom Type    1  (O)
 ==============

 Valence Basis Sets:   8
 -----------------------
   1 S    7.360000
   2 S    1.720000
   2 S    2.880000
   2 S    7.580000
   2 P    1.120000
   2 P    2.080000
   2 P    4.080000
   3 D    2.000000

 Frozen Core Shells
 ------------------
    S:  1


 BAS: List of all Elementary Cartesian Basis Functions
 =====================================================

 The numbering in the list below (to the right of the function characteristics) is referred
 to in print-outs of MO eigenvectors and Mulliken populations in the BAS representation
 (as contrasted to the SFO representation).

 Notes:
 1. The functions are characterized by a polynomial prefactor (powers of x,y,z and r) and
    an exponential decay factor alpha.
 2. Since the basis sets are specific for an atom TYPE, the individual functions occur on
    all atoms of that type.
 3. The word 'Core' in the left margin signals that it is a Core Function (CF) : not a
    degree of freedom in the valence set, but only used to ensure orthogonalization of
    the other valence basis functions on the frozen Core Orbitals.


 (power of) X  Y  Z  R     Alpha  on Atom
            ==========     =====     ==========

 O                                    1
                                  ---------------------------------------------------------------------------
    Core    0  0  0  0     7.360      1
            0  0  0  1     1.720      2
            0  0  0  1     2.880      3
            0  0  0  1     7.580      4
            1  0  0  0     1.120      5
            0  1  0  0     1.120      6
            0  0  1  0     1.120      7
            1  0  0  0     2.080      8
            0  1  0  0     2.080      9
            0  0  1  0     2.080     10
            1  0  0  0     4.080     11
            0  1  0  0     4.080     12
            0  0  1  0     4.080     13
            2  0  0  0     2.000     14
            1  1  0  0     2.000     15
            1  0  1  0     2.000     16
            0  2  0  0     2.000     17
            0  1  1  0     2.000     18
            0  0  2  0     2.000     19

 Total number of charge fitting functions (nprimf)        82
 Total number of Cartesian basis functions (naos)         19
 Total number of Cartesian core functions  (ncos)          1



 BAS: List of all Elementary Cartesian Basis Functions
 =====================================================

 The numbering in the list below (to the right of the function characteristics) is referred
 to in print-outs of MO eigenvectors and Mulliken populations in the BAS representation
 (as contrasted to the SFO representation).

 Notes:
 1. The functions are characterized by a polynomial prefactor (powers of x,y,z and r) and
    an exponential decay factor alpha.
 2. Since the basis sets are specific for an atom TYPE, the individual functions occur on
    all atoms of that type.
 3. The word 'Core' in the left margin signals that it is a Core Function (CF) : not a
    degree of freedom in the valence set, but only used to ensure orthogonalization of
    the other valence basis functions on the frozen Core Orbitals.


 (power of) X  Y  Z  R     Alpha  on Atom
            ==========     =====     ==========

 O                                    1
                                  ---------------------------------------------------------------------------
    Core    0  0  0  0     7.360      1
            0  0  0  1     1.720      2
            0  0  0  1     2.880      3
            0  0  0  1     7.580      4
            1  0  0  0     1.120      5
            0  1  0  0     1.120      6
            0  0  1  0     1.120      7
            1  0  0  0     2.080      8
            0  1  0  0     2.080      9
            0  0  1  0     2.080     10
            1  0  0  0     4.080     11
            0  1  0  0     4.080     12
            0  0  1  0     4.080     13
            2  0  0  0     2.000     14
            1  1  0  0     2.000     15
            1  0  1  0     2.000     16
            0  2  0  0     2.000     17
            0  1  1  0     2.000     18
            0  0  2  0     2.000     19
1
 ***************************************************************************************************



                                              ***********************
                                              *  T E C H N I C A L  *
                                              ***********************
  



 =============================================================
 P A R A L L E L I Z A T I O N  and  V E C T O R I Z A T I O N
 =============================================================
  
 Nr of parallel processes:                                1
 Maximum vector length in NumInt loops:                 128



 =====================
 S C F   U P D A T E S
 =====================
  
 Max. nr. of cycles:                               300
 Convergence criterion:                              0.0000000100
   secondary criterion:                              0.0000000100

 Mix parameter (when DIIS does not apply):           0.2000000000
 Special mix parameter for the first cycle:          1.0000000000
 Mixed ADIIS+SDIIS will be used                  
    Max number of expansion vectors:                10
    Pure ADIIS when Max([F,P]) is above              0.1000000000
    Pure SDIIS when Max([F,P]) is below              0.0010000000
 Automatic ElectronSmearing (in case of problematic SCF convergence) disabled



 =================
 P R E C I S I O N  ***  (General: NumInt, NeglectFunctionTails, ...)  ***
 =================
  

 NumInt:           Target precision:                12.0000000000
 -------           Initial precision:               10.0000000000
                   Min. precision (optimization):   10.0000000000

 Neglect Functions:          Basis functions:        0.1000000000E-13
 ------------------          Fit functions:          0.1000000000E-13



 ===========================
 L I N E A R   S C A L I N G
 ===========================
  

 Cut-off radii density fit:                        0.1000000000E-97
 Overlap cut-off criterion AO matrix elements:     0.1000000000E-97
 Cut-offs for Coulomb potential and fitted density:0.1000000000E-97
 Cut-off criterion for Coulomb multipole terms:    0.1000000000E-97
 Progressive Convergence parameter:                 0.000000000    
1
 ***************************************************************************************************



                                            ***************************
                                            *  C O M P U T A T I O N  *
                                            ***************************
  

 Number of elements of the density matrix on this node (used, total):       190       190



 ===========================================
 Numerical Integration : Fuzzy Cells (Becke)
 ===========================================
  
 Becke grid quality: VERYGOOD       
  
 Lebedev angular grid order:             min:  13 max:  41
 Nr. of radial points:                   min:  68 max:  68

 Total nr. of points:         68
 Nr. of blocks:                1
 Block length:                68
 Nr. of dummy points:          0


 Test of Precision of the Numerical Integration Grid
 ===================================================

 Integral of the Total Core Density:                   1.99999999865610
 Relative Error:                                      -6.720E-10



 ========================
 Density Fitting (zlmFit)
 ========================
  
 ZlmFit Fit Quality: VERYGOOD       
  
 Max L-expansion:                        min:   0 max:   0
 Nr. of radial interpolation points:     min: 140 max: 140



 =====
 S C F  ***  ScaSCF  ***
 =====
  

 CYCLE    1
 SCF Error: norm([F,P])=      0.000000000000, max([F,P])=      0.000000000000
 orbitals (Q,E):
 ---------------
 S :1...3            ( 2.00    -5.3654)  ( 0.00    -2.2073)  ( 0.00    23.6692)
 P :1...3            ( 4.00    -5.0045)  ( 0.00    -2.0150)  ( 0.00    -0.3846)
 D :1...1            ( 0.00    -2.0410)

 CYCLE    2
 SCF Error: norm([F,P])=      4.562993374873, max([F,P])=      2.528971113813
 orbitals (Q,E):
 ---------------
 S :1...2            ( 2.00    -0.1548)  ( 0.00     1.6948)
 P :1...2            ( 4.00     0.1773)  ( 0.00     0.9552)
 D :1...1            ( 0.00     1.4649)

 CYCLE    3
  SDIIS (wt  0.000):  0.3378  0.6622
 A-DIIS (wt  1.000):  0.4814  0.5186
  DIIS coefficients:  0.4814  0.5186
 SCF Error: norm([F,P])=      2.723155250500, max([F,P])=      1.798667049295
 orbitals (Q,E):
 ---------------
 S :1...2            ( 2.00    -1.1093)  ( 0.00     0.7549)
 P :1...2            ( 4.00    -0.5518)  ( 0.00     0.2590)
 D :1...1            ( 0.00     0.8910)

 CYCLE    4
  SDIIS (wt  0.000):  0.0919  0.9081
 A-DIIS (wt  1.000):  0.0000  1.0000
  DIIS coefficients:  0.0000  1.0000
 SCF Error: norm([F,P])=      0.289027138405, max([F,P])=      0.130648623511
 orbitals (Q,E):
 ---------------
 S :1...2            ( 2.00    -0.7707)  ( 0.00     0.9912)
 P :1...2            ( 4.00    -0.2284)  ( 0.00     0.4046)
 D :1...1            ( 0.00     1.1288)

 CYCLE    5
  SDIIS (wt  0.000):  0.0260  0.6740  0.3001
 A-DIIS (wt  1.000):  0.0000  0.5764  0.4236
  DIIS coefficients:  0.0000  0.5764  0.4236
 SCF Error: norm([F,P])=      0.416615089426, max([F,P])=      0.232643669786
 orbitals (Q,E):
 ---------------
 S :1...2            ( 2.00    -0.8764)  ( 0.00     0.9107)
 P :1...2            ( 4.00    -0.3280)  ( 0.00     0.3557)
 D :1...1            ( 0.00     1.0703)

 CYCLE    6
  SDIIS (wt  0.942):  0.0005  0.0237 -0.0203  0.9960
 A-DIIS (wt  0.058):  0.0000  0.0000  0.0000  1.0000
  DIIS coefficients:  0.0005  0.0224 -0.0191  0.9962
 SCF Error: norm([F,P])=      0.013723272809, max([F,P])=      0.006719036732
 orbitals (Q,E):
 ---------------
 S :1...2            ( 2.00    -0.8830)  ( 0.00     0.9058)
 P :1...2            ( 4.00    -0.3343)  ( 0.00     0.3521)
 D :1...1            ( 0.00     1.0657)

 CYCLE    7
  SDIIS (wt  1.000): -0.0000  0.0016  0.0023  0.0424  0.9537
  DIIS coefficients: -0.0000  0.0016  0.0023  0.0424  0.9537
 SCF Error: norm([F,P])=      0.001103645928, max([F,P])=      0.000634039171
 orbitals (Q,E):
 ---------------
 S :1...2            ( 2.00    -0.8827)  ( 0.00     0.9060)
 P :1...2            ( 4.00    -0.3340)  ( 0.00     0.3523)
 D :1...1            ( 0.00     1.0659)

 CYCLE    8
  SDIIS (wt  1.000): -0.0000 -0.0001  0.0000 -0.0032  0.0268  0.9765
  DIIS coefficients: -0.0000 -0.0001  0.0000 -0.0032  0.0268  0.9765
 SCF Error: norm([F,P])=      0.000035919805, max([F,P])=      0.000020263970
 orbitals (Q,E):
 ---------------
 S :1...2            ( 2.00    -0.8827)  ( 0.00     0.9060)
 P :1...2            ( 4.00    -0.3340)  ( 0.00     0.3522)
 D :1...1            ( 0.00     1.0659)

 CYCLE    9
  SDIIS (wt  1.000): -0.0000  0.0008  0.0188  0.9804
  DIIS coefficients: -0.0000  0.0008  0.0188  0.9804
 SCF Error: norm([F,P])=      0.000000326384, max([F,P])=      0.000000183924
 orbitals (Q,E):
 ---------------
 S :1...2            ( 2.00    -0.8827)  ( 0.00     0.9060)
 P :1...2            ( 4.00    -0.3340)  ( 0.00     0.3522)
 D :1...1            ( 0.00     1.0659)

 CYCLE   10
  SDIIS (wt  1.000):  0.0000  0.0003  0.9996
  DIIS coefficients:  0.0000  0.0003  0.9996
 SCF Error: norm([F,P])=      0.000000000559, max([F,P])=      0.000000000306
 orbitals (Q,E):
 ---------------
 S :1...2            ( 2.00    -0.8827)  ( 0.00     0.9060)
 P :1...2            ( 4.00    -0.3340)  ( 0.00     0.3522)
 D :1...1            ( 0.00     1.0659)

 SCF CONVERGED

 CYCLE   11
1
 ***************************************************************************************************



                                                *******************
                                                *  R E S U L T S  *
                                                *******************
  
 *** Using FIT density in Focky
  SDIIS (wt  1.000): -0.0000  0.0143  0.9857
  DIIS coefficients: -0.0000  0.0143  0.9857
 SCF Error: norm([F,P])=      0.000000000010, max([F,P])=      0.000000000006

 Scaled ZORA Orbital Energies, per Irrep and Spin:
 =================================================
                        Occup              E (au)              E (eV)       Diff (eV) with prev. cycle
                        -----      --------------------        ------       --------------------------
 S
               1        2.000     -0.88272313143209E+00       -24.020              -9.28E-11
               2        0.000      0.90601345014671E+00        24.654
               3        0.000      0.29578810816937E+02       804.880
 P
               1        4.000     -0.33400585272070E+00        -9.089              -8.94E-11
               2        0.000      0.35224911365993E+00         9.585
               3        0.000      0.38342927625315E+01       104.336
 D
               1        0.000      0.10658965783141E+01        29.005


 Partially Occupied:
               1 P                -0.33400585272070E+00
  
 HOMO :        1 S                -0.88272313143209E+00
 LUMO :        2 P                 0.35224911365993E+00
  


 Orbital Energies, all Irreps
 ========================================

 Irrep        no.  (spin)   Occup              E (au)                E (eV)
 ---------------------------------------------------------------------------
 S             1             2.00       -0.88272313143209E+00       -24.0201
 P             1             4.00       -0.33400585272070E+00        -9.0888
 P             2             0.00        0.35224911365993E+00         9.5852
 S             2             0.00        0.90601345014671E+00        24.6539
 D             1             0.00        0.10658965783141E+01        29.0045
 P             3             0.00        0.38342927625315E+01       104.3364
 S             3             0.00        0.29578810816937E+02       804.8804


 Scaled ZORA Orbital Energies of the Core Orbitals:
 ==================================================

 (Note that the atoms are grouped by atomtype, see the labels, and may hence NOT be in input order)

 AtomType  Orbital  Atom                   E (au)                        E (eV)
 --------  -------  ----           --------------------        ----------------
 O           1S        1          -0.18925919758629E+02                -515.000



 =======================================
 M U L L I K E N   P O P U L A T I O N S
 =======================================
  
 The survey below gives for each atom:
 a) the total charge (Z minus electrons)
 b) the net spin polarization (nr of electrons spin-A minus spin-B)
 c) for each spin the atomic electron valence density (integrated) per L-value.

 Atom              Charge    Spin density          S         P         D         F
 ----              ------    ------------       ------    ------    ------    ------
 1 O              -0.0000                       2.0000    4.0000    0.0000    0.0000

 Populations of individual BAS functions
 ----------------------------------------
 1 O            0.0005  0.9226  1.0966 -0.0196  0.3346  0.3346  0.3346  0.7512  0.7512  0.7512
                0.2476  0.2476  0.2476  0.0000  0.0000  0.0000  0.0000  0.0000  0.0000

 Gross Charges per Atom (Z minus electrons)
 ==========================================
            -0.0000
 Net Total: -0.00000000



 =======================================================================
 Electrostatic potential at the Nuclei due to electrons and other nuclei
 =======================================================================
  
         Atom                  Potential
         ----                  ---------
     1)   O                  22.20265662
 
 
 ========================
 No memory problems found
 ========================
 
 Maximum number of active allocate calls:         389
 
 *******************************************************************************

                             A D F   E X I T
 NORMAL TERMINATION



 =================
 Timing Statistics
 =================
  
 Total Used :                     CPU=        0.42      System=        0.02     Elapsed=        0.48

 Calls  Section                     ( Mean, Percentage )
 ---------------------------------------------------------------------------------------------------
     3  ><      ................      0.00    0.00             0.00    0.00             0.00    0.99
     1  INIT    ................      0.07   16.19             0.00    0.00             0.08   16.51
     1  GEOMET  ................      0.02    3.81             0.00   25.00             0.03    5.41
     1  INPUTA  ................      0.00    0.95             0.00    0.00             0.00    0.76
     1  MAINSY  ................      0.01    2.86             0.00    0.00             0.02    3.26
     1  SYMFIT  ................      0.00    0.00             0.00    0.00             0.00    0.33
     1  CORORT  ................      0.00    0.00             0.00    0.00             0.00    0.32
     1  SYMORB  ................      0.00    0.95             0.00    0.00             0.00    0.17
     1  CLSMAT  ................      0.00    0.95             0.00    0.00             0.01    1.12
     1  ORTHON  ................      0.00    0.95             0.00    0.00             0.01    1.11
     1  GENPT   ................      0.01    2.86             0.00    0.00             0.01    2.98
     1  PTBAS   ................      0.00    0.95             0.00    0.00             0.01    1.04
    11  FOCKY   ................      0.02   56.19             0.00   50.00             0.02   50.80
    11  FOCKTR  ................      0.00    0.95             0.00    0.00             0.00    1.36
    11  SDIIS   ................      0.00    4.76             0.00    0.00             0.00    6.03
     1  COREPS  ................      0.01    2.86             0.00   25.00             0.02    3.64
     1  POPAN   ................      0.01    1.90             0.00    0.00             0.00    1.03
     1  DEBYE   ................      0.00    0.00             0.00    0.00             0.00    0.38
     1  EXIT PROCEDURE .........      0.01    2.86             0.00    0.00             0.01    2.77


 Currently Open Files (EXIT00)
 ====================

 Unit    Access Format  Status   Type       Ident (file)
 -------------------------------------------------------
   3      SEQ    FORM   TRANSP  NORMAL      LOGFILE
                                          ( logfile )

 ***************************************************************************************************
 (LOGFILE)
 <Feb09-2023> <19:23:07>  DIRAC 2019  RunTime: Feb09-2023 19:23:07  Nodes: 1  Procs: 1
 <Feb09-2023> <19:23:07>  NORMAL TERMINATION
 <Feb09-2023> <19:23:07>  END
 <Feb09-2023> <19:23:07>  ADF 2019  RunTime: Feb09-2023 19:23:07  Nodes: 1  Procs: 1
 <Feb09-2023> <19:23:07>  Molybdenum (TZP, 3d frozen)
 <Feb09-2023> <19:23:07>  RunType   : CREATE
 <Feb09-2023> <19:23:07>  Net Charge: 0 (Nuclei minus Electrons)
 <Feb09-2023> <19:23:07>  Symmetry  : ATOM
  Coordinates
    Atom         X           Y           Z   (Angstrom)
    1.Mo        0.000000    0.000000    0.000000
 <Feb09-2023> <19:23:07>  >>>> CORORT
 <Feb09-2023> <19:23:07>  >>>> CLSMAT
 <Feb09-2023> <19:23:07>  >>>> ORTHON
 <Feb09-2023> <19:23:07>  >>>> GENPT
 <Feb09-2023> <19:23:07>  Block Length= 106
 <Feb09-2023> <19:23:07>  >>>> PTBAS
 <Feb09-2023> <19:23:07>  >>>> CYCLE
 <Feb09-2023> <19:23:07>              |Error|         MaxErr       Wt(A-DIIS)
 <Feb09-2023> <19:23:07>      1      0.00000000      0.00000000
 <Feb09-2023> <19:23:07>      2      7.14879069      2.36431496    100.0
 <Feb09-2023> <19:23:07>      3      4.21227824      1.56853098    100.0
 <Feb09-2023> <19:23:07>      4      1.82331032      0.62147007    100.0
 <Feb09-2023> <19:23:07>      5      1.05882822      0.36255337    100.0
 <Feb09-2023> <19:23:07>      6      0.38630237      0.12592649    100.0
 <Feb09-2023> <19:23:08>      7      0.28473462      0.09561243     95.6
 <Feb09-2023> <19:23:08>      8      0.07042704      0.02358176     22.8
 <Feb09-2023> <19:23:08>      9      0.02402163      0.00807014      7.1
 <Feb09-2023> <19:23:08>     10      0.00169154      0.00056938      0.0
 <Feb09-2023> <19:23:08>     11      0.00000082      0.00000027      0.0
 <Feb09-2023> <19:23:08>     12      0.00000002      0.00000001      0.0
 <Feb09-2023> <19:23:08>  SCF converged
 <Feb09-2023> <19:23:08>     13      0.00000000      0.00000000      0.0
 <Feb09-2023> <19:23:08>  >>>> POPAN
 <Feb09-2023> <19:23:08>  >>>> DEBYE
 <Feb09-2023> <19:23:08>  NORMAL TERMINATION
 <Feb09-2023> <19:23:08>  END
 <Feb09-2023> <19:23:08>  DIRAC 2019  RunTime: Feb09-2023 19:23:08  Nodes: 1  Procs: 1
 <Feb09-2023> <19:23:08>  NORMAL TERMINATION
 <Feb09-2023> <19:23:08>  END
 <Feb09-2023> <19:23:08>  ADF 2019  RunTime: Feb09-2023 19:23:08  Nodes: 1  Procs: 1
 <Feb09-2023> <19:23:08>  Oxygen (TZP, 1s frozen)
 <Feb09-2023> <19:23:08>  RunType   : CREATE
 <Feb09-2023> <19:23:08>  Net Charge: 0 (Nuclei minus Electrons)
 <Feb09-2023> <19:23:08>  Symmetry  : ATOM
  Coordinates
    Atom         X           Y           Z   (Angstrom)
    1.O         0.000000    0.000000    0.000000
 <Feb09-2023> <19:23:08>  >>>> CORORT
 <Feb09-2023> <19:23:08>  >>>> CLSMAT
 <Feb09-2023> <19:23:08>  >>>> ORTHON
 <Feb09-2023> <19:23:08>  >>>> GENPT
 <Feb09-2023> <19:23:08>  Block Length=  68
 <Feb09-2023> <19:23:08>  >>>> PTBAS
 <Feb09-2023> <19:23:08>  >>>> CYCLE
 <Feb09-2023> <19:23:08>              |Error|         MaxErr       Wt(A-DIIS)
 <Feb09-2023> <19:23:08>      1      0.00000000      0.00000000
 <Feb09-2023> <19:23:08>      2      4.56299337      2.52897111
 <Feb09-2023> <19:23:08>      3      2.72315525      1.79866705    100.0
 <Feb09-2023> <19:23:08>      4      0.28902714      0.13064862    100.0
 <Feb09-2023> <19:23:08>      5      0.41661509      0.23264367    100.0
 <Feb09-2023> <19:23:08>      6      0.01372327      0.00671904      5.8
 <Feb09-2023> <19:23:08>      7      0.00110365      0.00063404      0.0
 <Feb09-2023> <19:23:08>      8      0.00003592      0.00002026      0.0
 <Feb09-2023> <19:23:08>      9      0.00000033      0.00000018      0.0
 <Feb09-2023> <19:23:08>     10      0.00000000      0.00000000      0.0
 <Feb09-2023> <19:23:08>  SCF converged
 <Feb09-2023> <19:23:08>     11      0.00000000      0.00000000      0.0
 <Feb09-2023> <19:23:09>  >>>> POPAN
 <Feb09-2023> <19:23:09>  >>>> DEBYE
 <Feb09-2023> <19:23:09>  NORMAL TERMINATION
 <Feb09-2023> <19:23:09>  END


 Parallel Execution: Process Information
 ==============================================================================
 Rank   Node Name                              NodeID   MyNodeRank  NodeMaster
    0   kimik2218                                 0          0          0
    1   kimik2218                                 0          1         -1
    2   kimik2218                                 0          2         -1
    3   kimik2218                                 0          3         -1
    4   kimik2218                                 0          4         -1
    5   kimik2218                                 0          5         -1
    6   kimik2218                                 0          6         -1
    7   kimik2218                                 0          7         -1
    8   kimik2218                                 0          8         -1
    9   kimik2218                                 0          9         -1
   10   kimik2218                                 0         10         -1
   11   kimik2218                                 0         11         -1
   12   kimik2218                                 0         12         -1
   13   kimik2218                                 0         13         -1
   14   kimik2218                                 0         14         -1
   15   kimik2218                                 0         15         -1
   16   kimik2218                                 0         16         -1
   17   kimik2218                                 0         17         -1
   18   kimik2218                                 0         18         -1
   19   kimik2218                                 0         19         -1
   20   kimik2218                                 0         20         -1
   21   kimik2218                                 0         21         -1
   22   kimik2218                                 0         22         -1
   23   kimik2218                                 0         23         -1
   24   kimik2218                                 0         24         -1
   25   kimik2218                                 0         25         -1
   26   kimik2218                                 0         26         -1
   27   kimik2218                                 0         27         -1
 ==============================================================================


May use up to 61376MB of RAM as shared memory on node 0
 
AnalyticalFreq
end

NumericalQuality Good

QTAIM
    Enabled Yes
End

Relativistic Scalar ZORA

SOLVATION
  Surf Delley
  Solv name=Water cav0=0.0 cav1=0.0067639
  Charged method=CONJ
  C-Mat POT
  SCF VAR ALL
  CSMRSP
  Radii
    H=1.30
    O=1.72
    Mo=1.992
    Si=2.48
    W=1.992
    P=2.13
  SubEnd
end

ScanFreq -1000 0

XC
  GGA PBE
end

atoms
      1        Mo      2.735923      2.098693     12.352742
      2        Mo      3.841994      5.218220     10.831767
      3        Mo      4.341347      8.323948     12.849905
      4         O      3.275249      5.687243      9.272104
      5         O      5.469334      4.685722     10.637975
      6         O      4.330736      1.444189     12.400524
      7         O      2.199030      2.313028     13.975697
      8         O      3.788854      6.691080     12.021964
      9         O      3.924485      9.661341     11.843259
     10         O      6.218788      8.394636     13.096938
     11         O      3.510425      8.494437     14.349349
     12         O      2.753804      3.804304     11.481503
     13         O      1.646562      0.850534     11.432496
end

charge -2

geometry
end

Fragments
Mo t21.Mo
O t21.O
End

 *******************************************************************************
 *                                                                             *
 *  -------------------------------------                                      *
 *   Amsterdam Density Functional  (ADF)         2019                          *
 *  -------------------------------------                                      *
 *                                               r74351 2019-04-25             *
 *                                                                             *
 *                                                                             *
 *                              =================                              *
 *                              |               |                              *
 *                              |     A D F     |                              *
 *                              |               |                              *
 *                              =================                              *
 *                                                                             *
 *                                                                             *
 *   Online information and documentation:  https://www.scm.com/support/       *
 *   E-mail:  support@scm.com   info@scm.com                                   *
 *                                                                             *
 *   Scientific publications using ADF results must be properly referenced     *
 *   See the User Manuals (or the web site) for recommended citations          *
 *   The terms and conditions of the End User License Agreement apply to       *
 *   the use of ADF, https://www.scm.com/license-terms/                        *
 *                                                                             *
 **********************  x86_64_linux_intel / intelmpi  ************************
 
 Licensed to: Dr. Carles Bo / Institute of Chemical Research of Catalonia ( (ICIQ) / Tarragona / Spain 2022-11-28 14:37:29
 SCM User ID: u7609
  
 ADF 2019  RunTime: Feb09-2023 19:23:09  Nodes: 1  Procs: 28

 Temporary files are created in /scratch/kid_0.1450281442


Communication costs MPI_COMM_WORLD:      1.684 usec per message,   0.0130 usec per 8-byte item
Communication costs for intra-node:      1.594 usec per message,   0.0130 usec per 8-byte item

 *** (NO TITLE) ***



 ===========================
 A T T A C H E D   F I L E S
 ===========================
  



 ===============================
 M O D E L   P A R A M E T E R S
 ===============================
  
 DENSITY FUNCTIONAL POTENTIAL (scf)
    LDA:                               PW92                                    == Not Default ==
    Gradient Corrections:              PBEc PBEx                               == Not Default ==

 SPIN  (restricted / unrestr.)
    Molecule:                          Restricted                               
    Fragments:                         Restricted                               

 OTHER ASPECTS
    Relativistic Corrections:          scalar (ZORA,MAPA)                      == Not Default ==

    Nuclear Charge Density Model:      Point Charge Nuclei                      
    Core Treatment:                    Frozen Orbital(s)                        

    Hyperfine or Zeeman Interaction:   ---                                      

 SOLVATION
-------------------------------------------

  The Delley construction of COSMO surface surface is calculated

       Division Level for Surface Triangles (NDIV)                  3
       Final Division Level for Triangles (NFDIV)                   1
       Radius of the Solvent (RSOL)                           1.93000 angstr
  Dielectric Constant (EPSL)                                 78.39000

       COSMO equation is solved iteratively-               conjugate-gradient

       Maximun of Iterations for Charges (NCIX)                  1000
       Criterion for Charge convergence (CCNV)                1.0E-08

  COSMO charges included variationally in SCF

       COSMO included at every SCF cycle

  Geometry-dependent empirical factor                         0.00000

  C-Matrix calculated in cspmtx

  In cspmtx, C-Matrix calculated using fitted potential

-------------------------------------------



 Fragment File(s)
 ----------------
 Mo:
         file : t21.Mo
         jobid: ADF 2019  RunTime: Feb09-2023 19:23:07  Nodes: 1  Procs: 1
         title: Molybdenum (TZP, 3d frozen)
 O:
         file : t21.O
         jobid: ADF 2019  RunTime: Feb09-2023 19:23:08  Nodes: 1  Procs: 1
         title: Oxygen (TZP, 1s frozen)



                                   *********************************************
                                   *  R U N   T Y P E : GEOMETRY OPTIMIZATION  *
                                   *********************************************
  



 ===============
 G E O M E T R Y  ***  3D  Molecule  ***
 ===============
  

 ATOMS
[...]
 <Feb09-2023> <19:28:17>     13      0.00011843      0.00002738      0.0
 <Feb09-2023> <19:28:18>     14      0.00006224      0.00000957      0.0
 <Feb09-2023> <19:28:19>     15      0.00001827      0.00000330      0.0
 <Feb09-2023> <19:28:20>     16      0.00000871      0.00000128      0.0
 <Feb09-2023> <19:28:20>     17      0.00000542      0.00000076      0.0
 <Feb09-2023> <19:28:21>  SCF converged
 <Feb09-2023> <19:28:21>     18      0.00000078      0.00000014      0.0
 <Feb09-2023> <19:28:21>  >>>> TOTEN
 <Feb09-2023> <19:28:22>  >>>> POPAN
 <Feb09-2023> <19:28:22>  >>>> DEBYE
 <Feb09-2023> <19:28:22>  >>>> ENGRAD
 <Feb09-2023> <19:28:24>  current energy                               -4.19074230 Hartree
 <Feb09-2023> <19:28:24>  energy change                       0.00002911     0.00100000    T
 <Feb09-2023> <19:28:24>  constrained gradient max            0.00090187     0.00100000    T
 <Feb09-2023> <19:28:24>  constrained gradient rms            0.00035417     0.00066667    T
 <Feb09-2023> <19:28:24>  gradient max                        0.00090187
 <Feb09-2023> <19:28:24>  gradient rms                        0.00035417
 <Feb09-2023> <19:28:24>  cart. step max                      0.02229142     0.01000000    F
 <Feb09-2023> <19:28:24>  cart. step rms                      0.00754836     0.00666667    F
  Coordinates in Geometry Cycle 18
    Atom         X           Y           Z   (Angstrom)
    1.Mo        2.691976    2.087457   12.317323
    2.Mo        3.931315    5.195328   10.861731
    3.Mo        4.329390    8.326173   12.831131
    4.O         3.527497    5.737383    9.260638
    5.O         5.579819    4.655141   10.832549
    6.O         4.286837    1.360865   12.467814
    7.O         2.044410    2.382835   13.927710
    8.O         3.742548    6.604669   12.078365
    9.O         3.545161    9.643206   11.964827
   10.O         6.073847    8.509351   12.686021
   11.O         3.874703    8.404552   14.530260
   12.O         2.780309    3.788731   11.323649
   13.O         1.628718    0.971683   11.464206
 <Feb09-2023> <19:28:24>  >>>> CORORT
 <Feb09-2023> <19:28:24>  >>>> CLSMAT
 <Feb09-2023> <19:28:24>  >>>> ORTHON
 <Feb09-2023> <19:28:24>  >>>> GENPT
 <Feb09-2023> <19:28:24>  Block Length= 128
 <Feb09-2023> <19:28:24>  >>>> PTBAS
 <Feb09-2023> <19:28:25>  combining surface points...
 <Feb09-2023> <19:28:25>  combining surface points...
 <Feb09-2023> <19:28:25>  combining surface points...
 <Feb09-2023> <19:28:25>  >>>> CYCLE
 <Feb09-2023> <19:28:26>              |Error|         MaxErr       Wt(A-DIIS)
 <Feb09-2023> <19:28:26>      1      0.07451837      0.00816254
 <Feb09-2023> <19:28:27>      2      0.33251046      0.04713621    100.0
 <Feb09-2023> <19:28:28>      3      0.08714475      0.01021954    100.0
 <Feb09-2023> <19:28:29>      4      0.04063101      0.00584817      4.9
 <Feb09-2023> <19:28:30>      5      0.06907660      0.01333302    100.0
 <Feb09-2023> <19:28:30>      6      0.12305948      0.02140313    100.0
 <Feb09-2023> <19:28:31>      7      0.08840853      0.01153818    100.0
 <Feb09-2023> <19:28:32>      8      0.02718930      0.00410316      3.1
 <Feb09-2023> <19:28:33>      9      0.00754110      0.00180417      0.8
 <Feb09-2023> <19:28:34>     10      0.00168036      0.00035482      0.0
 <Feb09-2023> <19:28:35>     11      0.00062656      0.00010535      0.0
 <Feb09-2023> <19:28:35>     12      0.00030680      0.00004903      0.0
 <Feb09-2023> <19:28:36>     13      0.00013772      0.00002752      0.0
 <Feb09-2023> <19:28:37>     14      0.00006309      0.00001052      0.0
 <Feb09-2023> <19:28:38>     15      0.00002246      0.00000473      0.0
 <Feb09-2023> <19:28:38>     16      0.00000676      0.00000094      0.0
 <Feb09-2023> <19:28:38>  SCF converged
 <Feb09-2023> <19:28:39>     17      0.00000651      0.00000085      0.0
 <Feb09-2023> <19:28:39>  >>>> TOTEN
 <Feb09-2023> <19:28:40>  >>>> POPAN
 <Feb09-2023> <19:28:40>  >>>> DEBYE
 <Feb09-2023> <19:28:40>  >>>> ENGRAD
 <Feb09-2023> <19:28:42>  current energy                               -4.19077605 Hartree
 <Feb09-2023> <19:28:42>  energy change                      -0.00003375     0.00100000    T
 <Feb09-2023> <19:28:42>  constrained gradient max            0.00087722     0.00100000    T
 <Feb09-2023> <19:28:42>  constrained gradient rms            0.00027670     0.00066667    T
 <Feb09-2023> <19:28:42>  gradient max                        0.00087722
 <Feb09-2023> <19:28:42>  gradient rms                        0.00027670
 <Feb09-2023> <19:28:42>  cart. step max                      0.00665826     0.01000000    T
 <Feb09-2023> <19:28:42>  cart. step rms                      0.00283878     0.00666667    T
 <Feb09-2023> <19:28:42>  GEOMETRY CONVERGED
 <Feb09-2023> <19:28:42>  Calculating Energy Terms for Final Geometry
  Coordinates in Geometry Cycle 18
    Atom         X           Y           Z   (Angstrom)
    1.Mo        2.691976    2.087457   12.317323
    2.Mo        3.931315    5.195328   10.861731
    3.Mo        4.329390    8.326173   12.831131
    4.O         3.527497    5.737383    9.260638
    5.O         5.579819    4.655141   10.832549
    6.O         4.286837    1.360865   12.467814
    7.O         2.044410    2.382835   13.927710
    8.O         3.742548    6.604669   12.078365
    9.O         3.545161    9.643206   11.964827
   10.O         6.073847    8.509351   12.686021
   11.O         3.874703    8.404552   14.530260
   12.O         2.780309    3.788731   11.323649
   13.O         1.628718    0.971683   11.464206
 <Feb09-2023> <19:28:42>  >>>> CORORT
 <Feb09-2023> <19:28:42>  >>>> CLSMAT
 <Feb09-2023> <19:28:42>  >>>> ORTHON
 <Feb09-2023> <19:28:42>  >>>> GENPT
 <Feb09-2023> <19:28:42>  Block Length= 128
 <Feb09-2023> <19:28:42>  >>>> PTBAS
 <Feb09-2023> <19:28:42>  combining surface points...
 <Feb09-2023> <19:28:42>  combining surface points...
 <Feb09-2023> <19:28:42>  combining surface points...
 <Feb09-2023> <19:28:42>  >>>> CYCLE
 <Feb09-2023> <19:28:44>              |Error|         MaxErr       Wt(A-DIIS)
 <Feb09-2023> <19:28:44>      1      0.06685204      0.00923788
 <Feb09-2023> <19:28:45>      2      0.33157536      0.05855216    100.0
 <Feb09-2023> <19:28:46>      3      0.09423838      0.01409342    100.0
 <Feb09-2023> <19:28:47>      4      0.03593099      0.00420685      3.2
 <Feb09-2023> <19:28:47>      5      0.07190530      0.01744158    100.0
 <Feb09-2023> <19:28:48>      6      0.10596528      0.02555559    100.0
 <Feb09-2023> <19:28:49>      7      0.01812831      0.00360196      2.6
 <Feb09-2023> <19:28:50>      8      0.00866161      0.00196605      1.0
 <Feb09-2023> <19:28:51>      9      0.00248073      0.00044980      0.0
 <Feb09-2023> <19:28:52>     10      0.00144772      0.00019860      0.0
 <Feb09-2023> <19:28:52>     11      0.00024542      0.00004832      0.0
 <Feb09-2023> <19:28:53>     12      0.00017174      0.00002998      0.0
 <Feb09-2023> <19:28:54>     13      0.00008465      0.00001722      0.0
 <Feb09-2023> <19:28:55>     14      0.00006290      0.00000946      0.0
 <Feb09-2023> <19:28:55>     15      0.00001515      0.00000273      0.0
 <Feb09-2023> <19:28:56>     16      0.00000498      0.00000106      0.0
 <Feb09-2023> <19:28:57>     17      0.00000416      0.00000063      0.0
 <Feb09-2023> <19:28:57>  SCF converged
 <Feb09-2023> <19:28:57>     18      0.00000164      0.00000026      0.0
 <Feb09-2023> <19:28:58>  >>>> TOTEN
 <Feb09-2023> <19:28:59>  QTAIM: determining topology...
 <Feb09-2023> <19:29:01>  >>>> POPAN
 <Feb09-2023> <19:29:01>  >>>> DEBYE
 <Feb09-2023> <19:29:01>  >>>> AMETS
 <Feb09-2023> <19:29:01>  >>>> POPUL
 <Feb09-2023> <19:29:01>   Bond Energy          -4.19077605 a.u.
 <Feb09-2023> <19:29:01>   Bond Energy        -114.03681852 eV
 <Feb09-2023> <19:29:01>   Bond Energy       -2629.75       kcal/mol
 <Feb09-2023> <19:29:01>  >>>> ENHESS
 <Feb09-2023> <19:29:02>  === NUCLEUS:     1
 <Feb09-2023> <19:29:48>  === NUCLEUS:     2
 <Feb09-2023> <19:30:36>  === NUCLEUS:     3
 <Feb09-2023> <19:31:21>  === NUCLEUS:     4
 <Feb09-2023> <19:32:03>  === NUCLEUS:     5
 <Feb09-2023> <19:32:46>  === NUCLEUS:     6
 <Feb09-2023> <19:33:29>  === NUCLEUS:     7
 <Feb09-2023> <19:34:12>  === NUCLEUS:     8
 <Feb09-2023> <19:34:56>  === NUCLEUS:     9
 <Feb09-2023> <19:35:39>  === NUCLEUS:    10
 <Feb09-2023> <19:36:21>  === NUCLEUS:    11
 <Feb09-2023> <19:37:05>  === NUCLEUS:    12
 <Feb09-2023> <19:37:50>  === NUCLEUS:    13
 <Feb09-2023> <19:38:34>  >>>> CALC_HESS_PMAT
 <Feb09-2023> <19:38:38>  >>>> CALC_HESS_WMAT
 <Feb09-2023> <19:38:39>  Symmetry  : NOSYM
 <Feb09-2023> <19:38:39>  >>>> FRAGM
 <Feb09-2023> <19:38:39>  Geometry symmetry displacement    1 out of    4
  Coordinates in Geometry Cycle 18
    Atom         X           Y           Z   (Angstrom)
    1.Mo        2.691922    2.087463   12.317276
    2.Mo        3.931397    5.195255   10.861784
    3.Mo        4.329418    8.326196   12.831166
    4.O         3.527088    5.738140    9.261099
    5.O         5.579767    4.654695   10.831721
    6.O         4.286787    1.360898   12.467858
    7.O         2.044302    2.382915   13.927627
    8.O         3.743534    6.604009   12.079231
    9.O         3.544786    9.642509   11.964133
   10.O         6.073823    8.510027   12.686239
   11.O         3.874443    8.405161   14.530189
   12.O         2.780268    3.788691   11.323511
   13.O         1.628705    0.971638   11.464178
 <Feb09-2023> <19:38:39>  >>>> CORORT
 <Feb09-2023> <19:38:39>  >>>> CLSMAT
 <Feb09-2023> <19:38:39>  >>>> ORTHON
 <Feb09-2023> <19:38:39>  >>>> GENPT
 <Feb09-2023> <19:38:39>  Block Length= 128
 <Feb09-2023> <19:38:39>  >>>> PTBAS
 <Feb09-2023> <19:38:39>  combining surface points...
 <Feb09-2023> <19:38:39>  combining surface points...
 <Feb09-2023> <19:38:39>  combining surface points...
 <Feb09-2023> <19:38:39>  >>>> CYCLE
 <Feb09-2023> <19:38:41>              |Error|         MaxErr       Wt(A-DIIS)
 <Feb09-2023> <19:38:41>      1      0.06687317      0.00802986
 <Feb09-2023> <19:38:42>      2      0.33154212      0.04638224    100.0
 <Feb09-2023> <19:38:43>      3      0.09419854      0.01136907    100.0
 <Feb09-2023> <19:38:43>      4      0.03592273      0.00420892      3.2
 <Feb09-2023> <19:38:44>      5      0.07189116      0.01386781    100.0
 <Feb09-2023> <19:38:45>      6      0.10588948      0.02026075    100.0
 <Feb09-2023> <19:38:46>      7      0.01814355      0.00428105      3.3
 <Feb09-2023> <19:38:47>      8      0.00887206      0.00217843      1.2
 <Feb09-2023> <19:38:48>      9      0.00249953      0.00046641      0.0
 <Feb09-2023> <19:38:48>     10      0.00144770      0.00020090      0.0
 <Feb09-2023> <19:38:49>     11      0.00024556      0.00004875      0.0
 <Feb09-2023> <19:38:50>     12      0.00017218      0.00003163      0.0
 <Feb09-2023> <19:38:51>     13      0.00008508      0.00001328      0.0
 <Feb09-2023> <19:38:51>     14      0.00006319      0.00000802      0.0
 <Feb09-2023> <19:38:52>     15      0.00001509      0.00000232      0.0
 <Feb09-2023> <19:38:53>     16      0.00000501      0.00000087      0.0
 <Feb09-2023> <19:38:53>  SCF converged
 <Feb09-2023> <19:38:54>     17      0.00000415      0.00000062      0.0
 <Feb09-2023> <19:38:54>  >>>> TOTEN
 <Feb09-2023> <19:38:54>  >>>> POPAN
 <Feb09-2023> <19:38:54>  >>>> DEBYE
 <Feb09-2023> <19:38:54>  >>>> ENGRAD
 <Feb09-2023> <19:38:56>  Geometry symmetry displacement    2 out of    4
  Coordinates in Geometry Cycle 18
    Atom         X           Y           Z   (Angstrom)
    1.Mo        2.692029    2.087450   12.317371
    2.Mo        3.931233    5.195401   10.861677
    3.Mo        4.329362    8.326150   12.831096
    4.O         3.527907    5.736625    9.260177
    5.O         5.579871    4.655588   10.833377
    6.O         4.286887    1.360832   12.467770
    7.O         2.044519    2.382755   13.927793
    8.O         3.741561    6.605330   12.077498
    9.O         3.545535    9.643903   11.965521
   10.O         6.073871    8.508675   12.685802
   11.O         3.874963    8.403944   14.530330
   12.O         2.780351    3.788771   11.323787
   13.O         1.628731    0.971729   11.464234
 <Feb09-2023> <19:38:56>  >>>> CORORT
 <Feb09-2023> <19:38:56>  >>>> CLSMAT
 <Feb09-2023> <19:38:56>  >>>> ORTHON
 <Feb09-2023> <19:38:56>  >>>> GENPT
 <Feb09-2023> <19:38:56>  Block Length= 128
 <Feb09-2023> <19:38:56>  >>>> PTBAS
 <Feb09-2023> <19:38:56>  combining surface points...
 <Feb09-2023> <19:38:56>  combining surface points...
 <Feb09-2023> <19:38:56>  combining surface points...
 <Feb09-2023> <19:38:56>  >>>> CYCLE
 <Feb09-2023> <19:38:58>              |Error|         MaxErr       Wt(A-DIIS)
 <Feb09-2023> <19:38:58>      1      0.06698171      0.00803646
 <Feb09-2023> <19:38:59>      2      0.33157764      0.04642187    100.0
 <Feb09-2023> <19:39:00>      3      0.09401988      0.01135031    100.0
 <Feb09-2023> <19:39:01>      4      0.03594710      0.00425517      3.3
 <Feb09-2023> <19:39:01>      5      0.07183221      0.01385948    100.0
 <Feb09-2023> <19:39:02>      6      0.10573526      0.02019475    100.0
 <Feb09-2023> <19:39:03>      7      0.01880514      0.00433116      3.4
 <Feb09-2023> <19:39:04>      8      0.00891719      0.00217578      1.2
 <Feb09-2023> <19:39:05>      9      0.00260145      0.00048158      0.0
 <Feb09-2023> <19:39:05>     10      0.00144556      0.00020087      0.0
 <Feb09-2023> <19:39:06>     11      0.00025387      0.00004817      0.0
 <Feb09-2023> <19:39:07>     12      0.00017979      0.00003193      0.0
 <Feb09-2023> <19:39:08>     13      0.00005032      0.00000909      0.0
 <Feb09-2023> <19:39:08>     14      0.00005126      0.00000665      0.0
 <Feb09-2023> <19:39:09>     15      0.00001477      0.00000233      0.0
 <Feb09-2023> <19:39:10>     16      0.00000529      0.00000081      0.0
 <Feb09-2023> <19:39:10>  SCF converged
 <Feb09-2023> <19:39:11>     17      0.00000324      0.00000049      0.0
 <Feb09-2023> <19:39:11>  >>>> TOTEN
 <Feb09-2023> <19:39:11>  >>>> POPAN
 <Feb09-2023> <19:39:11>  >>>> DEBYE
 <Feb09-2023> <19:39:11>  >>>> ENGRAD
 <Feb09-2023> <19:39:13>  Old frequency:    -42.26148, new:    -29.84406
 <Feb09-2023> <19:39:13>  Geometry symmetry displacement    3 out of    4
  Coordinates in Geometry Cycle 18
    Atom         X           Y           Z   (Angstrom)
    1.Mo        2.692014    2.087703   12.317402
    2.Mo        3.931428    5.195346   10.861498
    3.Mo        4.329227    8.325865   12.831234
    4.O         3.527788    5.737759    9.260483
    5.O         5.580003    4.655363   10.832431
    6.O         4.286734    1.360769   12.467745
    7.O         2.045033    2.384008   13.927857
    8.O         3.742348    6.604360   12.078470
    9.O         3.545034    9.642917   11.964926
   10.O         6.073688    8.508997   12.686119
   11.O         3.874542    8.404253   14.530362
   12.O         2.780544    3.788453   11.322837
   13.O         1.628207    0.971813   11.465124
 <Feb09-2023> <19:39:13>  >>>> CORORT
 <Feb09-2023> <19:39:13>  >>>> CLSMAT
 <Feb09-2023> <19:39:13>  >>>> ORTHON
 <Feb09-2023> <19:39:13>  >>>> GENPT
 <Feb09-2023> <19:39:13>  Block Length= 128
 <Feb09-2023> <19:39:13>  >>>> PTBAS
 <Feb09-2023> <19:39:14>  combining surface points...
 <Feb09-2023> <19:39:14>  combining surface points...
 <Feb09-2023> <19:39:14>  combining surface points...
 <Feb09-2023> <19:39:14>  >>>> CYCLE
 <Feb09-2023> <19:39:15>              |Error|         MaxErr       Wt(A-DIIS)
 <Feb09-2023> <19:39:15>      1      0.06691390      0.00803917
 <Feb09-2023> <19:39:16>      2      0.33162835      0.04641760    100.0
 <Feb09-2023> <19:39:17>      3      0.09440927      0.01141240    100.0
 <Feb09-2023> <19:39:18>      4      0.03592382      0.00416744      3.2
 <Feb09-2023> <19:39:18>      5      0.07198757      0.01388910    100.0
 <Feb09-2023> <19:39:19>      6      0.10609750      0.02034166    100.0
 <Feb09-2023> <19:39:20>      7      0.01780292      0.00424096      3.3
 <Feb09-2023> <19:39:21>      8      0.00884633      0.00217886      1.2
 <Feb09-2023> <19:39:22>      9      0.00241413      0.00045359      0.0
 <Feb09-2023> <19:39:23>     10      0.00145130      0.00020608      0.0
 <Feb09-2023> <19:39:23>     11      0.00023942      0.00004944      0.0
 <Feb09-2023> <19:39:24>     12      0.00016593      0.00003144      0.0
 <Feb09-2023> <19:39:25>     13      0.00011586      0.00001832      0.0
 <Feb09-2023> <19:39:26>     14      0.00006889      0.00000880      0.0
 <Feb09-2023> <19:39:26>     15      0.00001612      0.00000241      0.0
 <Feb09-2023> <19:39:27>     16      0.00000507      0.00000093      0.0
 <Feb09-2023> <19:39:27>  SCF converged
 <Feb09-2023> <19:39:28>     17      0.00000508      0.00000074      0.0
 <Feb09-2023> <19:39:28>  >>>> TOTEN
 <Feb09-2023> <19:39:28>  >>>> POPAN
 <Feb09-2023> <19:39:28>  >>>> DEBYE
 <Feb09-2023> <19:39:28>  >>>> ENGRAD
 <Feb09-2023> <19:39:30>  Geometry symmetry displacement    4 out of    4
  Coordinates in Geometry Cycle 18
    Atom         X           Y           Z   (Angstrom)
    1.Mo        2.691937    2.087211   12.317244
    2.Mo        3.931202    5.195311   10.861964
    3.Mo        4.329553    8.326482   12.831028
    4.O         3.527207    5.737006    9.260793
    5.O         5.579635    4.654920   10.832667
    6.O         4.286941    1.360961   12.467883
    7.O         2.043788    2.381661   13.927564
    8.O         3.742747    6.604979   12.078259
    9.O         3.545287    9.643495   11.964727
   10.O         6.074006    8.509705   12.685923
   11.O         3.874864    8.404852   14.530157
   12.O         2.780075    3.789009   11.324461
   13.O         1.629229    0.971554   11.463288
 <Feb09-2023> <19:39:30>  >>>> CORORT
 <Feb09-2023> <19:39:30>  >>>> CLSMAT
 <Feb09-2023> <19:39:30>  >>>> ORTHON
 <Feb09-2023> <19:39:30>  >>>> GENPT
 <Feb09-2023> <19:39:30>  Block Length= 128
 <Feb09-2023> <19:39:30>  >>>> PTBAS
 <Feb09-2023> <19:39:31>  combining surface points...
 <Feb09-2023> <19:39:31>  combining surface points...
 <Feb09-2023> <19:39:31>  combining surface points...
 <Feb09-2023> <19:39:31>  >>>> CYCLE
 <Feb09-2023> <19:39:32>              |Error|         MaxErr       Wt(A-DIIS)
 <Feb09-2023> <19:39:32>      1      0.06689644      0.00802538
 <Feb09-2023> <19:39:33>      2      0.33153103      0.04639621    100.0
 <Feb09-2023> <19:39:34>      3      0.09373875      0.01129097    100.0
 <Feb09-2023> <19:39:35>      4      0.03597124      0.00431697      3.4
 <Feb09-2023> <19:39:36>      5      0.07170258      0.01383374    100.0
 <Feb09-2023> <19:39:36>      6      0.10558207      0.02010258    100.0
 <Feb09-2023> <19:39:37>      7      0.02006938      0.00439074      3.4
 <Feb09-2023> <19:39:38>      8      0.00899640      0.00216659      1.2
 <Feb09-2023> <19:39:39>      9      0.00273666      0.00050029      0.0
 <Feb09-2023> <19:39:40>     10      0.00144833      0.00020153      0.0
 <Feb09-2023> <19:39:40>     11      0.00026600      0.00004750      0.0
 <Feb09-2023> <19:39:41>     12      0.00018955      0.00003227      0.0
 <Feb09-2023> <19:39:42>     13      0.00003744      0.00000831      0.0
 <Feb09-2023> <19:39:43>     14      0.00004607      0.00000840      0.0
 <Feb09-2023> <19:39:43>     15      0.00000921      0.00000115      0.0
 <Feb09-2023> <19:39:44>     16      0.00000570      0.00000075      0.0
 <Feb09-2023> <19:39:44>  SCF converged
 <Feb09-2023> <19:39:45>     17      0.00000252      0.00000036      0.0
 <Feb09-2023> <19:39:45>  >>>> TOTEN
 <Feb09-2023> <19:39:45>  >>>> POPAN
 <Feb09-2023> <19:39:45>  >>>> DEBYE
 <Feb09-2023> <19:39:45>  >>>> ENGRAD
 <Feb09-2023> <19:39:47>  Old frequency:    -21.51614, new:     43.69564
 <Feb09-2023> <19:39:47>  NOTE: Some frequencies have been re-calculated by numerical differentiation
 <Feb09-2023> <19:39:47>        Check the text output file for new values!
 <Feb09-2023> <19:39:47>  NORMAL TERMINATION
 <Feb09-2023> <19:39:47>  END
