
 *******************************************************************************
 *                                                                             *
 *  -------------------------------------                                      *
 *   Amsterdam Density Functional  (ADF)         2019                          *
 *  -------------------------------------                                      *
 *                                               r74351 2019-04-25             *
 *                                                                             *
 *                                                                             *
 *                            =====================                            *
 *                            |                   |                            *
 *                            |     D I R A C     |                            *
 *                            |                   |                            *
 *                            =====================                            *
 *                                                                             *
 *                                                                             *
 *   Online information and documentation:  https://www.scm.com/support/       *
 *   E-mail:  support@scm.com   info@scm.com                                   *
 *                                                                             *
 *   Scientific publications using ADF results must be properly referenced     *
 *   See the User Manuals (or the web site) for recommended citations          *
 *   The terms and conditions of the End User License Agreement apply to       *
 *   the use of ADF, https://www.scm.com/license-terms/                        *
 *                                                                             *
 **********************  x86_64_linux_intel / intelmpi  ************************
 
 Licensed to: Dr. Carles Bo / Institute of Chemical Research of Catalonia ( (ICIQ) / Tarragona / Spain 2022-11-28 14:37:29
 SCM User ID: u7609
  
 DIRAC 2019  RunTime: Feb14-2023 04:30:26  Nodes: 1  Procs: 1

 Temporary files are created in /scratch/kid_0.264795691

1
 HYDROGEN ATOM RELATIVISTIC, Point Nuc, A and c from libtc   
 N J RN H ZN XION ANUC CLIGHT
 5000    1100.00000000197.36710137  1.00000000  0.00000000    1.007825  0.1370360E+03
  PH   PHI     EPS        DEL        DELRVR
  0.30  0.30     2500.00  0.00001000  0.00001000
 IDIRC  NC1  NDEBU NPRIN  IPUN IRCOR IWCOR
   1   300     0     0     0     0     0
   XALPHA      XLATTER      RNUC
  0.70000000  0.00000000  0.00000000 Point Charge
   XN   XL   XJ      XE          XZ      XDELL
  1.0  0.0  0.5      -1.000       1.000     0.00000
 ICORP=  0  NPCL=  0  DEMP=0.00  PEPS=0.000000
 R(1)=  0.1000000E-08 D=  0.1005080E+01 RNUC=  0.0000000E+00
 converged at cycle   32  DENSITY AVERAGING    0.2400
  MAXIMUM ERROR IN R.V(R) IS   0.79874357E-05
 Q,EY,EV,EZ,ESUM,ETOT,RHO  0.100000E+01 -0.266614E+00 -0.619969E+00 -0.910779E+00 -0.203940E+00 -0.415998E+00  0.337036E-17


 DIRAC CALCULATION
1                    HYDROGEN ATOM RELATIVISTIC, Point Nuc, A and c from libtc


 EXCHANGE COEFFICIENT=  0.7000000           TAIL CORRECTION=  0.           NUCLEAR RADIUS=  0.000E+00
0                       ORBITAL    N    L    J     ELECTRONS     EIGENVALUE                DELTA OF EIGENV.

                          1S1/2  1.0  0.0  0.5     1.000       -0.2039397E+00                 0.2720093E-06


                                        NUCLEAR CHARGE=    1.000000
                            INTEGRAL OF CHARGE DENSITY=    1.000000
                           SUM OF THE ORBITAL ENERGIES=     -0.2039
                                          TOTAL ENERGY=     -0.4160
                                        KINETIC ENERGY=      0.4160
                             NUCLEAR ATTRACTION ENERGY=     -0.9108
                             ELECTRON REPULSION ENERGY=      0.2787
                                       EXCHANGE ENERGY=     -0.2000

 *******************************************************************************

                             D I R A C   E X I T
 NORMAL TERMINATION



 =================
 Timing Statistics
 =================
  
 Total Used :                     CPU=        0.07      System=        0.00     Elapsed=        0.08

 Calls  Section                     ( Mean, Percentage )
 ---------------------------------------------------------------------------------------------------
     2  ><      ................      0.00    0.00             0.00    0.00             0.00    0.01
     1  EXIT PROCEDURE .........      0.07  100.00             0.00  100.00             0.08   99.99


 Currently Open Files (EXIT00)
 ====================

 Unit    Access Format  Status   Type       Ident (file)
 -------------------------------------------------------
   3      SEQ    FORM   TRANSP  NORMAL      LOGFILE
                                          ( logfile )
 
Create H   file=TZP-H
XC
  GGA PBE
End
relativistic ZORA
Corepotentials t12.rel
End

 *******************************************************************************
 *                                                                             *
 *  -------------------------------------                                      *
 *   Amsterdam Density Functional  (ADF)         2019                          *
 *  -------------------------------------                                      *
 *                                               r74351 2019-04-25             *
 *                                                                             *
 *                                                                             *
 *                              =================                              *
 *                              |               |                              *
 *                              |     A D F     |                              *
 *                              |               |                              *
 *                              =================                              *
 *                                                                             *
 *                                                                             *
 *   Online information and documentation:  https://www.scm.com/support/       *
 *   E-mail:  support@scm.com   info@scm.com                                   *
 *                                                                             *
 *   Scientific publications using ADF results must be properly referenced     *
 *   See the User Manuals (or the web site) for recommended citations          *
 *   The terms and conditions of the End User License Agreement apply to       *
 *   the use of ADF, https://www.scm.com/license-terms/                        *
 *                                                                             *
 **********************  x86_64_linux_intel / intelmpi  ************************
 
 Licensed to: Dr. Carles Bo / Institute of Chemical Research of Catalonia ( (ICIQ) / Tarragona / Spain 2022-11-28 14:37:29
 SCM User ID: u7609
  
 ADF 2019  RunTime: Feb14-2023 04:30:26  Nodes: 1  Procs: 1

 Temporary files are created in /scratch/kid_0.508481592

 Hydrogen (TZP)



 ===========================
 A T T A C H E D   F I L E S
 ===========================
  
 CREATE - Data File:    TZP-H
                        Hydrogen (TZP)
 Core Potentials:
         file : t12.rel



 ===============================
 M O D E L   P A R A M E T E R S
 ===============================
  
 DENSITY FUNCTIONAL POTENTIAL (scf)
    LDA:                               PW92                                    == Not Default ==
    Gradient Corrections:              PBEc PBEx                               == Not Default ==

 SPIN  (restricted / unrestr.)
    Molecule:                          Restricted                               

 OTHER ASPECTS
    Relativistic Corrections:          scalar (ZORA,MAPA)                      == Not Default ==

    Nuclear Charge Density Model:      Point Charge Nuclei                      
    Core Treatment:                    Frozen Orbital(s)                        

    Hyperfine or Zeeman Interaction:   ---                                      



 =====================================
 S Y M M E T R Y ,   E L E C T R O N S
 =====================================
  
 Symmetry: ATOM

 Irreducible Representations, including subspecies
 -------------------------------------------------
 S
 P:x  P:y  P:z
 D:z2  D:x2-y2  D:xy  D:xz  D:yz
 F:z3  F:z  F:xyz  F:z2x  F:z2y  F:x  F:y


 Configuration of Valence Electrons
 ==================================

          Occupation Numbers
          -------------------------------------------------
 S        1
 P        0
 D        0
 F        0
          -------------------------------------------------

 Total:   1

 Net Charge: 0 (Nuclei minus Electrons)

 Preset values for MO occupations will be applied through SCF cycle no. 1000000
 Thereafter, the program will assign electrons to MOs that are spatially
 similar to the occupied MOs in a "reference" cycle ("KeepOrbitals").
 The reference cycle is always the PREVIOUS cycle: it will evolve with
 the SCF procedure.



 ================================
 (Slater-type)  F U N C T I O N S  ***  (Basis and Fit)  ***
 ================================
  

 Atom Type    1  (H)
 ==============

 Valence Basis Sets:   4
 -----------------------
   1 S    0.690000
   1 S    0.920000
   1 S    1.580000
   2 P    1.250000


 BAS: List of all Elementary Cartesian Basis Functions
 =====================================================

 The numbering in the list below (to the right of the function characteristics) is referred
 to in print-outs of MO eigenvectors and Mulliken populations in the BAS representation
 (as contrasted to the SFO representation).

 Notes:
 1. The functions are characterized by a polynomial prefactor (powers of x,y,z and r) and
    an exponential decay factor alpha.
 2. Since the basis sets are specific for an atom TYPE, the individual functions occur on
    all atoms of that type.
 3. The word 'Core' in the left margin signals that it is a Core Function (CF) : not a
    degree of freedom in the valence set, but only used to ensure orthogonalization of
    the other valence basis functions on the frozen Core Orbitals.


 (power of) X  Y  Z  R     Alpha  on Atom
            ==========     =====     ==========

 H                                    1
                                  ---------------------------------------------------------------------------
            0  0  0  0     0.690      1
            0  0  0  0     0.920      2
            0  0  0  0     1.580      3
            1  0  0  0     1.250      4
            0  1  0  0     1.250      5
            0  0  1  0     1.250      6

 Total number of charge fitting functions (nprimf)        50
 Total number of Cartesian basis functions (naos)          6
 Total number of Cartesian core functions  (ncos)          0



 BAS: List of all Elementary Cartesian Basis Functions
 =====================================================

 The numbering in the list below (to the right of the function characteristics) is referred
 to in print-outs of MO eigenvectors and Mulliken populations in the BAS representation
 (as contrasted to the SFO representation).

 Notes:
 1. The functions are characterized by a polynomial prefactor (powers of x,y,z and r) and
    an exponential decay factor alpha.
 2. Since the basis sets are specific for an atom TYPE, the individual functions occur on
    all atoms of that type.
 3. The word 'Core' in the left margin signals that it is a Core Function (CF) : not a
    degree of freedom in the valence set, but only used to ensure orthogonalization of
    the other valence basis functions on the frozen Core Orbitals.


 (power of) X  Y  Z  R     Alpha  on Atom
            ==========     =====     ==========

 H                                    1
                                  ---------------------------------------------------------------------------
            0  0  0  0     0.690      1
            0  0  0  0     0.920      2
            0  0  0  0     1.580      3
            1  0  0  0     1.250      4
            0  1  0  0     1.250      5
            0  0  1  0     1.250      6
1
 ***************************************************************************************************



                                              ***********************
                                              *  T E C H N I C A L  *
                                              ***********************
  



 =============================================================
 P A R A L L E L I Z A T I O N  and  V E C T O R I Z A T I O N
 =============================================================
  
 Nr of parallel processes:                                1
 Maximum vector length in NumInt loops:                 128



 =====================
 S C F   U P D A T E S
 =====================
  
 Max. nr. of cycles:                               300
 Convergence criterion:                              0.0000000100
   secondary criterion:                              0.0000000100

 Mix parameter (when DIIS does not apply):           0.2000000000
 Special mix parameter for the first cycle:          1.0000000000
 Mixed ADIIS+SDIIS will be used                  
    Max number of expansion vectors:                10
    Pure ADIIS when Max([F,P]) is above              0.1000000000
    Pure SDIIS when Max([F,P]) is below              0.0010000000
 Automatic ElectronSmearing (in case of problematic SCF convergence) disabled



 =================
 P R E C I S I O N  ***  (General: NumInt, NeglectFunctionTails, ...)  ***
 =================
  

 NumInt:           Target precision:                12.0000000000
 -------           Initial precision:               10.0000000000
                   Min. precision (optimization):   10.0000000000

 Neglect Functions:          Basis functions:        0.1000000000E-13
 ------------------          Fit functions:          0.1000000000E-13



 ===========================
 L I N E A R   S C A L I N G
 ===========================
  

 Cut-off radii density fit:                        0.1000000000E-97
 Overlap cut-off criterion AO matrix elements:     0.1000000000E-97
 Cut-offs for Coulomb potential and fitted density:0.1000000000E-97
 Cut-off criterion for Coulomb multipole terms:    0.1000000000E-97
 Progressive Convergence parameter:                 0.000000000    
1
 ***************************************************************************************************



                                            ***************************
                                            *  C O M P U T A T I O N  *
                                            ***************************
  

 Number of elements of the density matrix on this node (used, total):        21        21



 ===========================================
 Numerical Integration : Fuzzy Cells (Becke)
 ===========================================
  
 Becke grid quality: VERYGOOD       
  
 Lebedev angular grid order:             min:  13 max:  41
 Nr. of radial points:                   min:  64 max:  64

 Total nr. of points:         64
 Nr. of blocks:                1
 Block length:                64
 Nr. of dummy points:          0


 Test of Precision of the Numerical Integration Grid
 ===================================================

 Integral of the Total Core Density:                   0.00000000000000



 ========================
 Density Fitting (zlmFit)
 ========================
  
 ZlmFit Fit Quality: VERYGOOD       
  
 Max L-expansion:                        min:   0 max:   0
 Nr. of radial interpolation points:     min: 120 max: 120



 =====
 S C F  ***  ScaSCF  ***
 =====
  

 CYCLE    1
 SCF Error: norm([F,P])=      0.000000000000, max([F,P])=      0.000000000000
 orbitals (Q,E):
 ---------------
 S :1...3            ( 1.00    -0.5000)  ( 0.00    -0.0900)  ( 0.00     1.2936)
 P :1...1            ( 0.00     0.1562)

 CYCLE    2
 SCF Error: norm([F,P])=      0.031537872292, max([F,P])=      0.030110494752
 orbitals (Q,E):
 ---------------
 S :1...2            ( 1.00    -0.2218)  ( 0.00     0.1019)
 P :1...1            ( 0.00     0.4189)

 CYCLE    3
  SDIIS (wt  0.000):  0.1996  0.8004
 A-DIIS (wt  1.000):  0.0000  1.0000
  DIIS coefficients:  0.0000  1.0000
 SCF Error: norm([F,P])=      0.008617989401, max([F,P])=      0.008343029399
 orbitals (Q,E):
 ---------------
 S :1...2            ( 1.00    -0.2422)  ( 0.00     0.0889)
 P :1...1            ( 0.00     0.4024)

 CYCLE    4
  SDIIS (wt  0.993):  0.1666  0.8334
 A-DIIS (wt  0.007):  0.0000  1.0000
  DIIS coefficients:  0.1654  0.8346
 SCF Error: norm([F,P])=      0.001732350026, max([F,P])=      0.001718616814
 orbitals (Q,E):
 ---------------
 S :1...2            ( 1.00    -0.2385)  ( 0.00     0.0908)
 P :1...1            ( 0.00     0.4054)

 CYCLE    5
  SDIIS (wt  1.000):  0.0236  0.9764
  DIIS coefficients:  0.0236  0.9764
 SCF Error: norm([F,P])=      0.000043673449, max([F,P])=      0.000039769875
 orbitals (Q,E):
 ---------------
 S :1...2            ( 1.00    -0.2386)  ( 0.00     0.0908)
 P :1...1            ( 0.00     0.4054)

 CYCLE    6
  SDIIS (wt  1.000): -0.0577  1.0577
  DIIS coefficients: -0.0577  1.0577
 SCF Error: norm([F,P])=      0.000002383805, max([F,P])=      0.000002158128
 orbitals (Q,E):
 ---------------
 S :1...2            ( 1.00    -0.2386)  ( 0.00     0.0908)
 P :1...1            ( 0.00     0.4054)

 CYCLE    7
  SDIIS (wt  1.000): -0.0032  1.0032
  DIIS coefficients: -0.0032  1.0032
 SCF Error: norm([F,P])=      0.000000007721, max([F,P])=      0.000000007228
 orbitals (Q,E):
 ---------------
 S :1...2            ( 1.00    -0.2386)  ( 0.00     0.0908)
 P :1...1            ( 0.00     0.4054)

 SCF CONVERGED

 CYCLE    8
1
 ***************************************************************************************************



                                                *******************
                                                *  R E S U L T S  *
                                                *******************
  
 *** Using FIT density in Focky
  SDIIS (wt  1.000):  0.0192  0.9808
  DIIS coefficients:  0.0192  0.9808
 SCF Error: norm([F,P])=      0.000000000151, max([F,P])=      0.000000000141

 Scaled ZORA Orbital Energies, per Irrep and Spin:
 =================================================
                        Occup              E (au)              E (eV)       Diff (eV) with prev. cycle
                        -----      --------------------        ------       --------------------------
 S
               1        1.000     -0.23861775226993E+00        -6.493               7.43E-09
               2        0.000      0.90791701709251E-01         2.471
               3        0.000      0.15217530108908E+01        41.409
 P
               1        0.000      0.40537978060393E+00        11.031


 Partially Occupied:
               1 S                -0.23861775226993E+00
  
 LUMO :        2 S                 0.90791701709251E-01
  


 Orbital Energies, all Irreps
 ========================================

 Irrep        no.  (spin)   Occup              E (au)                E (eV)
 ---------------------------------------------------------------------------
 S             1             1.00       -0.23861775226993E+00        -6.4931
 S             2             0.00        0.90791701709251E-01         2.4706
 P             1             0.00        0.40537978060393E+00        11.0309
 S             3             0.00        0.15217530108908E+01        41.4090


 All Electron Calculation, thus no Orbital Energies of the Core Orbitals are calculated



 =======================================
 M U L L I K E N   P O P U L A T I O N S
 =======================================
  
 The survey below gives for each atom:
 a) the total charge (Z minus electrons)
 b) the net spin polarization (nr of electrons spin-A minus spin-B)
 c) for each spin the atomic electron valence density (integrated) per L-value.

 Atom              Charge    Spin density          S         P         D         F
 ----              ------    ------------       ------    ------    ------    ------
 1 H              -0.0000                       1.0000    0.0000    0.0000    0.0000

 Populations of individual BAS functions
 ----------------------------------------
 1 H            0.2104  0.6788  0.1107  0.0000  0.0000  0.0000

 Gross Charges per Atom (Z minus electrons)
 ==========================================
            -0.0000
 Net Total: -0.00000000



 =======================================================================
 Electrostatic potential at the Nuclei due to electrons and other nuclei
 =======================================================================
  
         Atom                  Potential
         ----                  ---------
     1)   H                   0.94468022
 
 
 ========================
 No memory problems found
 ========================
 
 Maximum number of active allocate calls:         306
 
 *******************************************************************************

                             A D F   E X I T
 NORMAL TERMINATION



 =================
 Timing Statistics
 =================
  
 Total Used :                     CPU=        0.36      System=        0.02     Elapsed=        0.40

 Calls  Section                     ( Mean, Percentage )
 ---------------------------------------------------------------------------------------------------
     3  ><      ................      0.00    0.00             0.00   20.00             0.00    1.17
     1  INIT    ................      0.07   19.10             0.00   20.00             0.08   19.38
     1  GEOMET  ................      0.02    4.49             0.00   20.00             0.03    6.34
     1  INPUTA  ................      0.00    1.12             0.00    0.00             0.00    0.89
     1  MAINSY  ................      0.01    3.37             0.00    0.00             0.01    3.44
     1  SYMFIT  ................      0.00    0.00             0.00    0.00             0.00    0.39
     1  CORORT  ................      0.00    0.00             0.00    0.00             0.00    0.34
     1  SYMORB  ................      0.00    0.00             0.00    0.00             0.00    0.18
     1  CLSMAT  ................      0.01    2.25             0.00    0.00             0.01    1.31
     1  ORTHON  ................      0.00    1.12             0.00    0.00             0.01    1.24
     1  GENPT   ................      0.01    3.37             0.00    0.00             0.01    3.23
     1  PTBAS   ................      0.00    1.12             0.00    0.00             0.00    1.19
     8  FOCKY   ................      0.02   48.31             0.00   20.00             0.02   45.68
     8  FOCKTR  ................      0.00    2.25             0.00    0.00             0.00    0.98
     8  SDIIS   ................      0.00    4.49             0.00   20.00             0.00    5.60
     1  COREPS  ................      0.01    3.37             0.00    0.00             0.01    3.71
     1  POPAN   ................      0.00    1.12             0.00    0.00             0.00    1.16
     1  DEBYE   ................      0.00    1.12             0.00    0.00             0.00    0.52
     1  EXIT PROCEDURE .........      0.01    3.37             0.00    0.00             0.01    3.26


 Currently Open Files (EXIT00)
 ====================

 Unit    Access Format  Status   Type       Ident (file)
 -------------------------------------------------------
   3      SEQ    FORM   TRANSP  NORMAL      LOGFILE
                                          ( logfile )

 ***************************************************************************************************
 (LOGFILE)
 <Feb14-2023> <04:30:26>  DIRAC 2019  RunTime: Feb14-2023 04:30:26  Nodes: 1  Procs: 1
 <Feb14-2023> <04:30:26>  NORMAL TERMINATION
 <Feb14-2023> <04:30:26>  END
 <Feb14-2023> <04:30:26>  ADF 2019  RunTime: Feb14-2023 04:30:26  Nodes: 1  Procs: 1
 <Feb14-2023> <04:30:26>  Hydrogen (TZP)
 <Feb14-2023> <04:30:26>  RunType   : CREATE
 <Feb14-2023> <04:30:26>  Net Charge: 0 (Nuclei minus Electrons)
 <Feb14-2023> <04:30:26>  Symmetry  : ATOM
  Coordinates
    Atom         X           Y           Z   (Angstrom)
    1.H         0.000000    0.000000    0.000000
 <Feb14-2023> <04:30:26>  >>>> CORORT
 <Feb14-2023> <04:30:26>  >>>> CLSMAT
 <Feb14-2023> <04:30:26>  >>>> ORTHON
 <Feb14-2023> <04:30:26>  >>>> GENPT
 <Feb14-2023> <04:30:26>  Block Length=  64
 <Feb14-2023> <04:30:26>  >>>> PTBAS
 <Feb14-2023> <04:30:26>  >>>> CYCLE
 <Feb14-2023> <04:30:26>              |Error|         MaxErr       Wt(A-DIIS)
 <Feb14-2023> <04:30:26>      1      0.00000000      0.00000000
 <Feb14-2023> <04:30:26>      2      0.03153787      0.03011049
 <Feb14-2023> <04:30:26>      3      0.00861799      0.00834303    100.0
 <Feb14-2023> <04:30:26>      4      0.00173235      0.00171862      0.7
 <Feb14-2023> <04:30:26>      5      0.00004367      0.00003977      0.0
 <Feb14-2023> <04:30:26>      6      0.00000238      0.00000216      0.0
 <Feb14-2023> <04:30:26>      7      0.00000001      0.00000001      0.0
 <Feb14-2023> <04:30:26>  SCF converged
 <Feb14-2023> <04:30:26>      8      0.00000000      0.00000000      0.0
 <Feb14-2023> <04:30:26>  >>>> POPAN
 <Feb14-2023> <04:30:26>  >>>> DEBYE
 <Feb14-2023> <04:30:26>  NORMAL TERMINATION
 <Feb14-2023> <04:30:26>  END

 *******************************************************************************
 *                                                                             *
 *  -------------------------------------                                      *
 *   Amsterdam Density Functional  (ADF)         2019                          *
 *  -------------------------------------                                      *
 *                                               r74351 2019-04-25             *
 *                                                                             *
 *                                                                             *
 *                            =====================                            *
 *                            |                   |                            *
 *                            |     D I R A C     |                            *
 *                            |                   |                            *
 *                            =====================                            *
 *                                                                             *
 *                                                                             *
 *   Online information and documentation:  https://www.scm.com/support/       *
 *   E-mail:  support@scm.com   info@scm.com                                   *
 *                                                                             *
 *   Scientific publications using ADF results must be properly referenced     *
 *   See the User Manuals (or the web site) for recommended citations          *
 *   The terms and conditions of the End User License Agreement apply to       *
 *   the use of ADF, https://www.scm.com/license-terms/                        *
 *                                                                             *
 **********************  x86_64_linux_intel / intelmpi  ************************
 
 Licensed to: Dr. Carles Bo / Institute of Chemical Research of Catalonia ( (ICIQ) / Tarragona / Spain 2022-11-28 14:37:29
 SCM User ID: u7609
  
 DIRAC 2019  RunTime: Feb14-2023 04:30:26  Nodes: 1  Procs: 1

 Temporary files are created in /scratch/kid_0.397954793

1
 PHOSPHORUS ATOM 1s CORE RELATIVISTIC, Point Nuc, A and c fro
 N J RN H ZN XION ANUC CLIGHT
 5000    7100.00000000197.36710137 15.00000000  0.00000000   30.973761  0.1370360E+03
  PH   PHI     EPS        DEL        DELRVR
  0.30  0.30     2500.00  0.00001000  0.00001000
 IDIRC  NC1  NDEBU NPRIN  IPUN IRCOR IWCOR
   1   300     0     0     0     0     1
   XALPHA      XLATTER      RNUC
  0.70000000  0.00000000  0.00000000 Point Charge
   XN   XL   XJ      XE          XZ      XDELL
  1.0  0.0  0.5    -600.000       2.000     0.00000
  2.0  0.0  0.5     -75.000       2.000     0.00000
  2.0  1.0  0.5     -70.000       2.000     0.00000
  2.0  1.0  1.5     -70.000       4.000     0.00000
  3.0  0.0  0.5     -25.000       2.000     0.00000
  3.0  1.0  0.5      -0.250       2.000     0.00000
  3.0  1.0  1.5      -0.250       1.000     0.00000
 ICORP=  0  NPCL=  0  DEMP=0.00  PEPS=0.000000
 R(1)=  0.1000000E-08 D=  0.1005080E+01 RNUC=  0.0000000E+00
 converged at cycle   47  DENSITY AVERAGING    0.3000
  MAXIMUM ERROR IN R.V(R) IS   0.93255186E-05
 Q,EY,EV,EZ,ESUM,ETOT,RHO  0.150000E+02 -0.290161E+02 -0.536820E+03 -0.814855E+03 -0.194417E+03 -0.340688E+03  0.340722E-13


 DIRAC CALCULATION
1                    PHOSPHORUS ATOM 1s CORE RELATIVISTIC, Point Nuc, A and c from libtc


 EXCHANGE COEFFICIENT=  0.7000000           TAIL CORRECTION=  0.           NUCLEAR RADIUS=  0.000E+00
0                       ORBITAL    N    L    J     ELECTRONS     EIGENVALUE                DELTA OF EIGENV.

                          1S1/2  1.0  0.0  0.5     2.000       -0.7640874E+02                 0.2597240E-06
                          2S1/2  2.0  0.0  0.5     2.000       -0.6353640E+01                 0.3482713E-07
                          2P1/2  2.0  1.0  0.5     2.000       -0.4588256E+01                 0.3010938E-07
                          2P3/2  2.0  1.0  1.5     4.000       -0.4554413E+01                 0.2993762E-07
                          3S1/2  3.0  0.0  0.5     2.000       -0.4844206E+00                 0.1693624E-07
                          3P1/2  3.0  1.0  0.5     2.000       -0.1770291E+00                 0.1234259E-07
                          3P3/2  3.0  1.0  1.5     1.000       -0.1750217E+00                 0.1224459E-07


                                        NUCLEAR CHARGE=   15.000000
                            INTEGRAL OF CHARGE DENSITY=   15.000000
                           SUM OF THE ORBITAL ENERGIES=   -194.4169
                                          TOTAL ENERGY=   -340.6884
                                        KINETIC ENERGY=    342.4034
                             NUCLEAR ATTRACTION ENERGY=   -814.8554
                             ELECTRON REPULSION ENERGY=    153.5256
                                       EXCHANGE ENERGY=    -21.7621

 *******************************************************************************

                             D I R A C   E X I T
 NORMAL TERMINATION



 =================
 Timing Statistics
 =================
  
 Total Used :                     CPU=        0.26      System=        0.01     Elapsed=        0.29

 Calls  Section                     ( Mean, Percentage )
 ---------------------------------------------------------------------------------------------------
     2  ><      ................      0.00    0.00             0.00    0.00             0.00    0.00
     1  EXIT PROCEDURE .........      0.26  100.00             0.01  100.00             0.29  100.00


 Currently Open Files (EXIT00)
 ====================

 Unit    Access Format  Status   Type       Ident (file)
 -------------------------------------------------------
   3      SEQ    FORM   TRANSP  NORMAL      LOGFILE
                                          ( logfile )
 
Create P   file=TZP-P.1s
XC
  GGA PBE
End
relativistic ZORA
Corepotentials t12.rel
End

 *******************************************************************************
 *                                                                             *
 *  -------------------------------------                                      *
 *   Amsterdam Density Functional  (ADF)         2019                          *
 *  -------------------------------------                                      *
 *                                               r74351 2019-04-25             *
 *                                                                             *
 *                                                                             *
 *                              =================                              *
 *                              |               |                              *
 *                              |     A D F     |                              *
 *                              |               |                              *
 *                              =================                              *
 *                                                                             *
 *                                                                             *
 *   Online information and documentation:  https://www.scm.com/support/       *
 *   E-mail:  support@scm.com   info@scm.com                                   *
 *                                                                             *
 *   Scientific publications using ADF results must be properly referenced     *
 *   See the User Manuals (or the web site) for recommended citations          *
 *   The terms and conditions of the End User License Agreement apply to       *
 *   the use of ADF, https://www.scm.com/license-terms/                        *
 *                                                                             *
 **********************  x86_64_linux_intel / intelmpi  ************************
 
 Licensed to: Dr. Carles Bo / Institute of Chemical Research of Catalonia ( (ICIQ) / Tarragona / Spain 2022-11-28 14:37:29
 SCM User ID: u7609
  
 ADF 2019  RunTime: Feb14-2023 04:30:27  Nodes: 1  Procs: 1

 Temporary files are created in /scratch/kid_0.437196095

 Phosphorus (TZP, 1s frozen)



 ===========================
 A T T A C H E D   F I L E S
 ===========================
  
 CREATE - Data File:    TZP-P.1s
                        Phosphorus (TZP, 1s frozen)
 Core Potentials:
         file : t12.rel



 ===============================
 M O D E L   P A R A M E T E R S
 ===============================
  
 DENSITY FUNCTIONAL POTENTIAL (scf)
    LDA:                               PW92                                    == Not Default ==
    Gradient Corrections:              PBEc PBEx                               == Not Default ==

 SPIN  (restricted / unrestr.)
    Molecule:                          Restricted                               

 OTHER ASPECTS
    Relativistic Corrections:          scalar (ZORA,MAPA)                      == Not Default ==

    Nuclear Charge Density Model:      Point Charge Nuclei                      
    Core Treatment:                    Frozen Orbital(s)                        

    Hyperfine or Zeeman Interaction:   ---                                      



 =====================================
 S Y M M E T R Y ,   E L E C T R O N S
 =====================================
  
 Symmetry: ATOM

 Irreducible Representations, including subspecies
 -------------------------------------------------
 S
 P:x  P:y  P:z
 D:z2  D:x2-y2  D:xy  D:xz  D:yz
 F:z3  F:z  F:xyz  F:z2x  F:z2y  F:x  F:y


 Configuration of Valence Electrons
 ==================================

          Occupation Numbers
          -------------------------------------------------
 S        2*2
 P        6 3
 D        0
 F        0
          -------------------------------------------------

 Total:   13

 Net Charge: 0 (Nuclei minus Electrons)

 Preset values for MO occupations will be applied through SCF cycle no. 1000000
 Thereafter, the program will assign electrons to MOs that are spatially
 similar to the occupied MOs in a "reference" cycle ("KeepOrbitals").
 The reference cycle is always the PREVIOUS cycle: it will evolve with
 the SCF procedure.



 ================================
 (Slater-type)  F U N C T I O N S  ***  (Basis and Fit)  ***
 ================================
  

 Atom Type    1  (P)
 ==============

 Valence Basis Sets:  12
 -----------------------
   1 S   12.550000
   2 S    5.600000
   2 S    4.050000
   2 P    7.450000
   2 P    4.100000
   3 S    1.300000
   3 S    1.850000
   3 S    2.650000
   3 P    0.850000
   3 P    1.300000
   3 P    2.050000
   3 D    1.900000

 Frozen Core Shells
 ------------------
    S:  1


 BAS: List of all Elementary Cartesian Basis Functions
 =====================================================

 The numbering in the list below (to the right of the function characteristics) is referred
 to in print-outs of MO eigenvectors and Mulliken populations in the BAS representation
 (as contrasted to the SFO representation).

 Notes:
 1. The functions are characterized by a polynomial prefactor (powers of x,y,z and r) and
    an exponential decay factor alpha.
 2. Since the basis sets are specific for an atom TYPE, the individual functions occur on
    all atoms of that type.
 3. The word 'Core' in the left margin signals that it is a Core Function (CF) : not a
    degree of freedom in the valence set, but only used to ensure orthogonalization of
    the other valence basis functions on the frozen Core Orbitals.


 (power of) X  Y  Z  R     Alpha  on Atom
            ==========     =====     ==========

 P                                    1
                                  ---------------------------------------------------------------------------
    Core    0  0  0  0    12.550      1
            0  0  0  1     5.600      2
            0  0  0  1     4.050      3
            1  0  0  0     7.450      4
            0  1  0  0     7.450      5
            0  0  1  0     7.450      6
            1  0  0  0     4.100      7
            0  1  0  0     4.100      8
            0  0  1  0     4.100      9
            0  0  0  2     1.300     10
            0  0  0  2     1.850     11
            0  0  0  2     2.650     12
            1  0  0  1     0.850     13
            0  1  0  1     0.850     14
            0  0  1  1     0.850     15
            1  0  0  1     1.300     16
            0  1  0  1     1.300     17
            0  0  1  1     1.300     18
            1  0  0  1     2.050     19
            0  1  0  1     2.050     20
            0  0  1  1     2.050     21
            2  0  0  0     1.900     22
            1  1  0  0     1.900     23
            1  0  1  0     1.900     24
            0  2  0  0     1.900     25
            0  1  1  0     1.900     26
            0  0  2  0     1.900     27

 Total number of charge fitting functions (nprimf)       106
 Total number of Cartesian basis functions (naos)         27
 Total number of Cartesian core functions  (ncos)          1



 BAS: List of all Elementary Cartesian Basis Functions
 =====================================================

 The numbering in the list below (to the right of the function characteristics) is referred
 to in print-outs of MO eigenvectors and Mulliken populations in the BAS representation
 (as contrasted to the SFO representation).

 Notes:
 1. The functions are characterized by a polynomial prefactor (powers of x,y,z and r) and
    an exponential decay factor alpha.
 2. Since the basis sets are specific for an atom TYPE, the individual functions occur on
    all atoms of that type.
 3. The word 'Core' in the left margin signals that it is a Core Function (CF) : not a
    degree of freedom in the valence set, but only used to ensure orthogonalization of
    the other valence basis functions on the frozen Core Orbitals.


 (power of) X  Y  Z  R     Alpha  on Atom
            ==========     =====     ==========

 P                                    1
                                  ---------------------------------------------------------------------------
    Core    0  0  0  0    12.550      1
            0  0  0  1     5.600      2
            0  0  0  1     4.050      3
            1  0  0  0     7.450      4
            0  1  0  0     7.450      5
            0  0  1  0     7.450      6
            1  0  0  0     4.100      7
            0  1  0  0     4.100      8
            0  0  1  0     4.100      9
            0  0  0  2     1.300     10
            0  0  0  2     1.850     11
            0  0  0  2     2.650     12
            1  0  0  1     0.850     13
            0  1  0  1     0.850     14
            0  0  1  1     0.850     15
            1  0  0  1     1.300     16
            0  1  0  1     1.300     17
            0  0  1  1     1.300     18
            1  0  0  1     2.050     19
            0  1  0  1     2.050     20
            0  0  1  1     2.050     21
            2  0  0  0     1.900     22
            1  1  0  0     1.900     23
            1  0  1  0     1.900     24
            0  2  0  0     1.900     25
            0  1  1  0     1.900     26
            0  0  2  0     1.900     27
1
 ***************************************************************************************************



                                              ***********************
                                              *  T E C H N I C A L  *
                                              ***********************
  



 =============================================================
 P A R A L L E L I Z A T I O N  and  V E C T O R I Z A T I O N
 =============================================================
  
 Nr of parallel processes:                                1
 Maximum vector length in NumInt loops:                 128



 =====================
 S C F   U P D A T E S
 =====================
  
 Max. nr. of cycles:                               300
 Convergence criterion:                              0.0000000100
   secondary criterion:                              0.0000000100

 Mix parameter (when DIIS does not apply):           0.2000000000
 Special mix parameter for the first cycle:          1.0000000000
 Mixed ADIIS+SDIIS will be used                  
    Max number of expansion vectors:                10
    Pure ADIIS when Max([F,P]) is above              0.1000000000
    Pure SDIIS when Max([F,P]) is below              0.0010000000
 Automatic ElectronSmearing (in case of problematic SCF convergence) disabled



 =================
 P R E C I S I O N  ***  (General: NumInt, NeglectFunctionTails, ...)  ***
 =================
  

 NumInt:           Target precision:                12.0000000000
 -------           Initial precision:               10.0000000000
                   Min. precision (optimization):   10.0000000000

 Neglect Functions:          Basis functions:        0.1000000000E-13
 ------------------          Fit functions:          0.1000000000E-13



 ===========================
 L I N E A R   S C A L I N G
 ===========================
  

 Cut-off radii density fit:                        0.1000000000E-97
 Overlap cut-off criterion AO matrix elements:     0.1000000000E-97
 Cut-offs for Coulomb potential and fitted density:0.1000000000E-97
 Cut-off criterion for Coulomb multipole terms:    0.1000000000E-97
 Progressive Convergence parameter:                 0.000000000    
1
 ***************************************************************************************************



                                            ***************************
                                            *  C O M P U T A T I O N  *
                                            ***************************
  

 Number of elements of the density matrix on this node (used, total):       378       378



 ===========================================
 Numerical Integration : Fuzzy Cells (Becke)
 ===========================================
  
 Becke grid quality: VERYGOOD       
  
 Lebedev angular grid order:             min:  13 max:  41
 Nr. of radial points:                   min:  76 max:  76

 Total nr. of points:         76
 Nr. of blocks:                1
 Block length:                76
 Nr. of dummy points:          0


 Test of Precision of the Numerical Integration Grid
 ===================================================

 Integral of the Total Core Density:                   1.99999999908170
 Relative Error:                                      -4.592E-10



 ========================
 Density Fitting (zlmFit)
 ========================
  
 ZlmFit Fit Quality: VERYGOOD       
  
 Max L-expansion:                        min:   0 max:   0
 Nr. of radial interpolation points:     min: 190 max: 190



 =====
 S C F  ***  ScaSCF  ***
 =====
  

 CYCLE    1
 SCF Error: norm([F,P])=      0.000000000000, max([F,P])=      0.000000000000
 orbitals (Q,E):
 ---------------
 S :1...5            ( 2.00   -23.0992)  ( 2.00    -9.8031)  ( 0.00    -5.2886)  ( 0.00    -3.1440)
                     ( 0.00    -1.2993)
 P :1...5            ( 6.00   -22.3278)  ( 3.00    -9.2322)  ( 0.00    -4.8937)  ( 0.00    -3.0142)
                     ( 0.00    -1.9614)
 D :1...1            ( 0.00    -6.4318)

 CYCLE    2
  SDIIS (wt  0.000):  1.0000  0.0000
 A-DIIS (wt  1.000):  0.1145  0.8855
  DIIS coefficients:  0.1145  0.8855
 SCF Error: norm([F,P])=     18.574199763001, max([F,P])=      5.729460424591
 orbitals (Q,E):
 ---------------
 S :1...3            ( 2.00    -4.5689)  ( 2.00    -0.5693)  ( 0.00    -0.0589)
 P :1...3            ( 6.00    -2.5820)  ( 3.00    -0.3376)  ( 0.00    -0.0879)
 D :1...1            ( 0.00     0.3219)

 CYCLE    3
  SDIIS (wt  0.000):  0.2387  0.7613
 A-DIIS (wt  1.000):  0.0000  1.0000
  DIIS coefficients:  0.0000  1.0000
 SCF Error: norm([F,P])=      7.892246338364, max([F,P])=      2.592954182835
 orbitals (Q,E):
 ---------------
 S :1...3            ( 2.00    -8.2146)  ( 2.00    -0.9843)  ( 0.00    -0.0433)
 P :1...3            ( 6.00    -6.5635)  ( 3.00    -0.6019)  ( 0.00    -0.0049)
 D :1...1            ( 0.00    -0.0107)

 CYCLE    4
  SDIIS (wt  0.000): -0.0871  0.2952  0.7919
 A-DIIS (wt  1.000):  0.0000  0.1757  0.8243
  DIIS coefficients:  0.0000  0.1757  0.8243
 SCF Error: norm([F,P])=      4.387176641077, max([F,P])=      1.761626650861
 orbitals (Q,E):
 ---------------
 S :1...3            ( 2.00    -5.8126)  ( 2.00    -0.3504)  ( 0.00     0.1791)
 P :1...3            ( 6.00    -3.9508)  ( 3.00    -0.0835)  ( 0.00     0.1310)
 D :1...1            ( 0.00     0.5508)

 CYCLE    5
  SDIIS (wt  0.000): -0.0109 -0.0602  0.1941  0.8770
 A-DIIS (wt  1.000):  0.0000  0.0000  0.0000  1.0000
  DIIS coefficients:  0.0000  0.0000  0.0000  1.0000
 SCF Error: norm([F,P])=      1.324345584458, max([F,P])=      0.466956153840
 orbitals (Q,E):
 ---------------
 S :1...3            ( 2.00    -6.8907)  ( 2.00    -0.7073)  ( 0.00     0.0342)
 P :1...3            ( 6.00    -5.0922)  ( 3.00    -0.3650)  ( 0.00     0.0330)
 D :1...1            ( 0.00     0.1959)

 CYCLE    6
  SDIIS (wt  0.000):  0.0000 -0.0289 -0.0346  0.4584  0.6050
 A-DIIS (wt  1.000):  0.0000  0.0000  0.0000  0.3111  0.6889
  DIIS coefficients:  0.0000  0.0000  0.0000  0.3111  0.6889
 SCF Error: norm([F,P])=      0.894656609953, max([F,P])=      0.328552344502
 orbitals (Q,E):
 ---------------
 S :1...3            ( 2.00    -6.3109)  ( 2.00    -0.4896)  ( 0.00     0.1210)
 P :1...3            ( 6.00    -4.4823)  ( 3.00    -0.1842)  ( 0.00     0.0870)
 D :1...1            ( 0.00     0.4072)

 CYCLE    7
  SDIIS (wt  0.437):  0.0003 -0.0004 -0.0106 -0.0415  0.1385  0.9137
 A-DIIS (wt  0.563):  0.0000  0.0000  0.0000  0.0000  0.0000  1.0000
  DIIS coefficients:  0.0001 -0.0002 -0.0046 -0.0181  0.0605  0.9623
 SCF Error: norm([F,P])=      0.152753231532, max([F,P])=      0.056768903175
 orbitals (Q,E):
 ---------------
 S :1...3            ( 2.00    -6.4268)  ( 2.00    -0.5264)  ( 0.00     0.1084)
 P :1...3            ( 6.00    -4.6039)  ( 3.00    -0.2126)  ( 0.00     0.0772)
 D :1...1            ( 0.00     0.3702)

 CYCLE    8
  SDIIS (wt  0.777): -0.0000 -0.0007  0.0025  0.0136 -0.0400  0.1180  0.9067
 A-DIIS (wt  0.223):  0.0000  0.0000  0.0000  0.0000  0.0000  0.0410  0.9590
  DIIS coefficients: -0.0000 -0.0005  0.0019  0.0105 -0.0311  0.1008  0.9184
 SCF Error: norm([F,P])=      0.062117061218, max([F,P])=      0.023065151090
 orbitals (Q,E):
 ---------------
 S :1...3            ( 2.00    -6.3871)  ( 2.00    -0.5116)  ( 0.00     0.1144)
 P :1...3            ( 6.00    -4.5623)  ( 3.00    -0.2008)  ( 0.00     0.0809)
 D :1...1            ( 0.00     0.3849)

 CYCLE    9
  SDIIS (wt  0.976):  0.0000  0.0000 -0.0001 -0.0000 -0.0006  0.0067  0.1535  0.8406
 A-DIIS (wt  0.024):  0.0000  0.0000  0.0000  0.0000  0.0000  0.0000  0.0000  1.0000
  DIIS coefficients:  0.0000  0.0000 -0.0001 -0.0000 -0.0006  0.0065  0.1498  0.8445
 SCF Error: norm([F,P])=      0.008957667695, max([F,P])=      0.003406470825
 orbitals (Q,E):
 ---------------
 S :1...3            ( 2.00    -6.3923)  ( 2.00    -0.5136)  ( 0.00     0.1136)
 P :1...3            ( 6.00    -4.5677)  ( 3.00    -0.2024)  ( 0.00     0.0804)
 D :1...1            ( 0.00     0.3830)

 CYCLE   10
  SDIIS (wt  1.000): -0.0000  0.0000 -0.0000 -0.0000  0.0000  0.0002  0.0031  0.0372  0.9595
  DIIS coefficients: -0.0000  0.0000 -0.0000 -0.0000  0.0000  0.0002  0.0031  0.0372  0.9595
 SCF Error: norm([F,P])=      0.000163653333, max([F,P])=      0.000063717608
 orbitals (Q,E):
 ---------------
 S :1...3            ( 2.00    -6.3922)  ( 2.00    -0.5136)  ( 0.00     0.1136)
 P :1...3            ( 6.00    -4.5676)  ( 3.00    -0.2024)  ( 0.00     0.0804)
 D :1...1            ( 0.00     0.3830)

 CYCLE   11
  SDIIS (wt  1.000):  0.0000  0.0000 -0.0000 -0.0002 -0.0016 -0.0226  1.0244
  DIIS coefficients:  0.0000  0.0000 -0.0000 -0.0002 -0.0016 -0.0226  1.0244
 SCF Error: norm([F,P])=      0.000000175567, max([F,P])=      0.000000090743
 orbitals (Q,E):
 ---------------
 S :1...3            ( 2.00    -6.3922)  ( 2.00    -0.5136)  ( 0.00     0.1136)
 P :1...3            ( 6.00    -4.5676)  ( 3.00    -0.2024)  ( 0.00     0.0804)
 D :1...1            ( 0.00     0.3830)

 CYCLE   12
  SDIIS (wt  1.000): -0.0000 -0.0000 -0.0005 -0.0247  1.0252
  DIIS coefficients: -0.0000 -0.0000 -0.0005 -0.0247  1.0252
 SCF Error: norm([F,P])=      0.000000002285, max([F,P])=      0.000000001028
 orbitals (Q,E):
 ---------------
 S :1...3            ( 2.00    -6.3922)  ( 2.00    -0.5136)  ( 0.00     0.1136)
 P :1...3            ( 6.00    -4.5676)  ( 3.00    -0.2024)  ( 0.00     0.0804)
 D :1...1            ( 0.00     0.3830)

 SCF CONVERGED

 CYCLE   13
1
 ***************************************************************************************************



                                                *******************
                                                *  R E S U L T S  *
                                                *******************
  
 *** Using FIT density in Focky
  SDIIS (wt  1.000):  0.0000  0.0017  0.0326  0.9657
  DIIS coefficients:  0.0000  0.0017  0.0326  0.9657
 SCF Error: norm([F,P])=      0.000000000342, max([F,P])=      0.000000000172

 Scaled ZORA Orbital Energies, per Irrep and Spin:
 =================================================
                        Occup              E (au)              E (eV)       Diff (eV) with prev. cycle
                        -----      --------------------        ------       --------------------------
 S
               1        2.000     -0.63922369009056E+01      -173.942               8.75E-09
               2        2.000     -0.51357095789531E+00       -13.975               6.90E-09
               3        0.000      0.11360419341918E+00         3.091
               4        0.000      0.13218598554508E+01        35.970
               5        0.000      0.10430275582036E+02       283.822
 P
               1        6.000     -0.45676340295409E+01      -124.292               8.74E-09
               2        3.000     -0.20235270966723E+00        -5.506               5.88E-09
               3        0.000      0.80400995303665E-01         2.188
               4        0.000      0.71612464912880E+00        19.487
               5        0.000      0.95392466931961E+01       259.576
 D
               1        0.000      0.38299165710671E+00        10.422


 Partially Occupied:
               2 P                -0.20235270966723E+00
  
 HOMO :        2 S                -0.51357095789531E+00
 LUMO :        3 P                 0.80400995303665E-01
  


 Orbital Energies, all Irreps
 ========================================

 Irrep        no.  (spin)   Occup              E (au)                E (eV)
 ---------------------------------------------------------------------------
 S             1             2.00       -0.63922369009056E+01      -173.9416
 P             1             6.00       -0.45676340295409E+01      -124.2916
 S             2             2.00       -0.51357095789531E+00       -13.9750
 P             2             3.00       -0.20235270966723E+00        -5.5063
 P             3             0.00        0.80400995303665E-01         2.1878
 S             3             0.00        0.11360419341918E+00         3.0913
 D             1             0.00        0.38299165710671E+00        10.4217
 P             4             0.00        0.71612464912880E+00        19.4867
 S             4             0.00        0.13218598554508E+01        35.9696
 P             5             0.00        0.95392466931961E+01       259.5761
 S             5             0.00        0.10430275582036E+02       283.8222


 Scaled ZORA Orbital Energies of the Core Orbitals:
 ==================================================

 (Note that the atoms are grouped by atomtype, see the labels, and may hence NOT be in input order)

 AtomType  Orbital  Atom                   E (au)                        E (eV)
 --------  -------  ----           --------------------        ----------------
 P           1S        1          -0.76588588395026E+02               -2084.082



 =======================================
 M U L L I K E N   P O P U L A T I O N S
 =======================================
  
 The survey below gives for each atom:
 a) the total charge (Z minus electrons)
 b) the net spin polarization (nr of electrons spin-A minus spin-B)
 c) for each spin the atomic electron valence density (integrated) per L-value.

 Atom              Charge    Spin density          S         P         D         F
 ----              ------    ------------       ------    ------    ------    ------
 1 P              -0.0000                       4.0000    9.0000    0.0000    0.0000

 Populations of individual BAS functions
 ----------------------------------------
 1 P           -0.0481  1.4990  0.5077  0.7973  0.7973  0.7973  1.2052  1.2052  1.2052  0.3372
                1.0986  0.6057  0.1369  0.1369  0.1369  0.4144  0.4144  0.4144  0.4462  0.4462
                0.4462  0.0000  0.0000  0.0000  0.0000  0.0000  0.0000

 Gross Charges per Atom (Z minus electrons)
 ==========================================
            -0.0000
 Net Total: -0.00000000



 =======================================================================
 Electrostatic potential at the Nuclei due to electrons and other nuclei
 =======================================================================
  
         Atom                  Potential
         ----                  ---------
     1)   P                  54.30955117
 
 
 ========================
 No memory problems found
 ========================
 
 Maximum number of active allocate calls:         389
 
 *******************************************************************************

                             A D F   E X I T
 NORMAL TERMINATION



 =================
 Timing Statistics
 =================
  
 Total Used :                     CPU=        0.60      System=        0.02     Elapsed=        0.66

 Calls  Section                     ( Mean, Percentage )
 ---------------------------------------------------------------------------------------------------
     3  ><      ................      0.00    0.67             0.00    0.00             0.00    0.72
     1  INIT    ................      0.07   12.00             0.00    0.00             0.08   11.86
     1  GEOMET  ................      0.02    2.67             0.01   40.00             0.03    3.95
     1  INPUTA  ................      0.00    0.67             0.00    0.00             0.00    0.56
     1  MAINSY  ................      0.01    2.00             0.00    0.00             0.02    2.43
     1  SYMFIT  ................      0.00    0.00             0.00    0.00             0.00    0.25
     1  CORORT  ................      0.00    0.67             0.00    0.00             0.00    0.25
     1  SYMORB  ................      0.00    0.00             0.00    0.00             0.00    0.14
     1  CLSMAT  ................      0.00    0.67             0.00    0.00             0.01    0.88
     1  ORTHON  ................      0.00    0.67             0.00    0.00             0.01    0.87
     1  GENPT   ................      0.02    2.67             0.00    0.00             0.02    2.93
     1  PTBAS   ................      0.01    1.33             0.00    0.00             0.01    0.81
    13  FOCKY   ................      0.03   62.67             0.00   40.00             0.03   60.40
    13  FOCKTR  ................      0.00    0.67             0.00    0.00             0.00    1.17
    13  SDIIS   ................      0.00    6.00             0.00    0.00             0.00    5.81
     1  COREPS  ................      0.02    3.33             0.00   20.00             0.02    3.70
     1  POPAN   ................      0.00    0.67             0.00    0.00             0.01    0.78
     1  DEBYE   ................      0.00    0.67             0.00    0.00             0.00    0.34
     1  EXIT PROCEDURE .........      0.01    2.00             0.00    0.00             0.01    2.16


 Currently Open Files (EXIT00)
 ====================

 Unit    Access Format  Status   Type       Ident (file)
 -------------------------------------------------------
   3      SEQ    FORM   TRANSP  NORMAL      LOGFILE
                                          ( logfile )

 ***************************************************************************************************
 (LOGFILE)
 <Feb14-2023> <04:30:26>  DIRAC 2019  RunTime: Feb14-2023 04:30:26  Nodes: 1  Procs: 1
 <Feb14-2023> <04:30:26>  NORMAL TERMINATION
 <Feb14-2023> <04:30:26>  END
 <Feb14-2023> <04:30:26>  ADF 2019  RunTime: Feb14-2023 04:30:26  Nodes: 1  Procs: 1
 <Feb14-2023> <04:30:26>  Hydrogen (TZP)
 <Feb14-2023> <04:30:26>  RunType   : CREATE
 <Feb14-2023> <04:30:26>  Net Charge: 0 (Nuclei minus Electrons)
 <Feb14-2023> <04:30:26>  Symmetry  : ATOM
  Coordinates
    Atom         X           Y           Z   (Angstrom)
    1.H         0.000000    0.000000    0.000000
 <Feb14-2023> <04:30:26>  >>>> CORORT
 <Feb14-2023> <04:30:26>  >>>> CLSMAT
 <Feb14-2023> <04:30:26>  >>>> ORTHON
 <Feb14-2023> <04:30:26>  >>>> GENPT
 <Feb14-2023> <04:30:26>  Block Length=  64
 <Feb14-2023> <04:30:26>  >>>> PTBAS
 <Feb14-2023> <04:30:26>  >>>> CYCLE
 <Feb14-2023> <04:30:26>              |Error|         MaxErr       Wt(A-DIIS)
 <Feb14-2023> <04:30:26>      1      0.00000000      0.00000000
 <Feb14-2023> <04:30:26>      2      0.03153787      0.03011049
 <Feb14-2023> <04:30:26>      3      0.00861799      0.00834303    100.0
 <Feb14-2023> <04:30:26>      4      0.00173235      0.00171862      0.7
 <Feb14-2023> <04:30:26>      5      0.00004367      0.00003977      0.0
 <Feb14-2023> <04:30:26>      6      0.00000238      0.00000216      0.0
 <Feb14-2023> <04:30:26>      7      0.00000001      0.00000001      0.0
 <Feb14-2023> <04:30:26>  SCF converged
 <Feb14-2023> <04:30:26>      8      0.00000000      0.00000000      0.0
 <Feb14-2023> <04:30:26>  >>>> POPAN
 <Feb14-2023> <04:30:26>  >>>> DEBYE
 <Feb14-2023> <04:30:26>  NORMAL TERMINATION
 <Feb14-2023> <04:30:26>  END
 <Feb14-2023> <04:30:26>  DIRAC 2019  RunTime: Feb14-2023 04:30:26  Nodes: 1  Procs: 1
 <Feb14-2023> <04:30:26>  NORMAL TERMINATION
 <Feb14-2023> <04:30:26>  END
 <Feb14-2023> <04:30:27>  ADF 2019  RunTime: Feb14-2023 04:30:27  Nodes: 1  Procs: 1
 <Feb14-2023> <04:30:27>  Phosphorus (TZP, 1s frozen)
 <Feb14-2023> <04:30:27>  RunType   : CREATE
 <Feb14-2023> <04:30:27>  Net Charge: 0 (Nuclei minus Electrons)
 <Feb14-2023> <04:30:27>  Symmetry  : ATOM
  Coordinates
    Atom         X           Y           Z   (Angstrom)
    1.P         0.000000    0.000000    0.000000
 <Feb14-2023> <04:30:27>  >>>> CORORT
 <Feb14-2023> <04:30:27>  >>>> CLSMAT
 <Feb14-2023> <04:30:27>  >>>> ORTHON
 <Feb14-2023> <04:30:27>  >>>> GENPT
 <Feb14-2023> <04:30:27>  Block Length=  76
 <Feb14-2023> <04:30:27>  >>>> PTBAS
 <Feb14-2023> <04:30:27>  >>>> CYCLE
 <Feb14-2023> <04:30:27>              |Error|         MaxErr       Wt(A-DIIS)
 <Feb14-2023> <04:30:27>      1      0.00000000      0.00000000
 <Feb14-2023> <04:30:27>      2     18.57419976      5.72946042    100.0
 <Feb14-2023> <04:30:27>      3      7.89224634      2.59295418    100.0
 <Feb14-2023> <04:30:27>      4      4.38717664      1.76162665    100.0
 <Feb14-2023> <04:30:27>      5      1.32434558      0.46695615    100.0
 <Feb14-2023> <04:30:27>      6      0.89465661      0.32855234    100.0
 <Feb14-2023> <04:30:27>      7      0.15275323      0.05676890     56.3
 <Feb14-2023> <04:30:27>      8      0.06211706      0.02306515     22.3
 <Feb14-2023> <04:30:27>      9      0.00895767      0.00340647      2.4
 <Feb14-2023> <04:30:27>     10      0.00016365      0.00006372      0.0
 <Feb14-2023> <04:30:27>     11      0.00000018      0.00000009      0.0
 <Feb14-2023> <04:30:27>     12      0.00000000      0.00000000      0.0
 <Feb14-2023> <04:30:27>  SCF converged
 <Feb14-2023> <04:30:27>     13      0.00000000      0.00000000      0.0
 <Feb14-2023> <04:30:27>  >>>> POPAN
 <Feb14-2023> <04:30:27>  >>>> DEBYE
 <Feb14-2023> <04:30:27>  NORMAL TERMINATION
 <Feb14-2023> <04:30:27>  END

 *******************************************************************************
 *                                                                             *
 *  -------------------------------------                                      *
 *   Amsterdam Density Functional  (ADF)         2019                          *
 *  -------------------------------------                                      *
 *                                               r74351 2019-04-25             *
 *                                                                             *
 *                                                                             *
 *                            =====================                            *
 *                            |                   |                            *
 *                            |     D I R A C     |                            *
 *                            |                   |                            *
 *                            =====================                            *
 *                                                                             *
 *                                                                             *
 *   Online information and documentation:  https://www.scm.com/support/       *
 *   E-mail:  support@scm.com   info@scm.com                                   *
 *                                                                             *
 *   Scientific publications using ADF results must be properly referenced     *
 *   See the User Manuals (or the web site) for recommended citations          *
 *   The terms and conditions of the End User License Agreement apply to       *
 *   the use of ADF, https://www.scm.com/license-terms/                        *
 *                                                                             *
 **********************  x86_64_linux_intel / intelmpi  ************************
 
 Licensed to: Dr. Carles Bo / Institute of Chemical Research of Catalonia ( (ICIQ) / Tarragona / Spain 2022-11-28 14:37:29
 SCM User ID: u7609
  
 DIRAC 2019  RunTime: Feb14-2023 04:30:27  Nodes: 1  Procs: 1

 Temporary files are created in /scratch/kid_0.556192128

1
 MOLYBDENUM ATOM 3d CORE RELATIVISTIC, Point Nuc, A and c fro
 N J RN H ZN XION ANUC CLIGHT
 5000   15100.00000000197.36710137 42.00000000  0.00000000   97.905406  0.1370360E+03
  PH   PHI     EPS        DEL        DELRVR
  0.30  0.30     2500.00  0.00001000  0.00001000
 IDIRC  NC1  NDEBU NPRIN  IPUN IRCOR IWCOR
   1   300     0     0     0     0     9
   XALPHA      XLATTER      RNUC
  0.70000000  0.00000000  0.00000000 Point Charge
   XN   XL   XJ      XE          XZ      XDELL
  1.0  0.0  0.5   -1500.000       2.000     0.00000
  2.0  0.0  0.5    -325.000       2.000     0.00000
  2.0  1.0  0.5    -325.000       2.000     0.00000
  2.0  1.0  1.5    -325.000       4.000     0.00000
  3.0  0.0  0.5     -70.000       2.000     0.00000
  3.0  1.0  0.5     -70.000       2.000     0.00000
  3.0  1.0  1.5     -70.000       4.000     0.00000
  3.0  2.0  1.5     -60.000       4.000     0.00000
  3.0  2.0  2.5     -60.000       6.000     0.00000
  4.0  0.0  0.5     -10.000       2.000     0.00000
  4.0  1.0  0.5     -10.000       2.000     0.00000
  4.0  1.0  1.5     -10.000       4.000     0.00000
  4.0  2.0  1.5      -1.000       4.000     0.00000
  4.0  2.0  2.5      -1.000       1.000     0.00000
  5.0  0.0  0.5      -0.500       1.000     0.00000
 ICORP=  0  NPCL=  0  DEMP=0.00  PEPS=0.000000
 R(1)=  0.1000000E-08 D=  0.1005080E+01 RNUC=  0.0000000E+00
 converged at cycle   41  DENSITY AVERAGING    0.2400
  MAXIMUM ERROR IN R.V(R) IS   0.93203452E-05
 Q,EY,EV,EZ,ESUM,ETOT,RHO  0.420000E+02 -0.161898E+03 -0.662509E+04 -0.978397E+04 -0.242700E+04 -0.404691E+04  0.342495E-11


 DIRAC CALCULATION
1                    MOLYBDENUM ATOM 3d CORE RELATIVISTIC, Point Nuc, A and c from libtc


 EXCHANGE COEFFICIENT=  0.7000000           TAIL CORRECTION=  0.           NUCLEAR RADIUS=  0.000E+00
0                       ORBITAL    N    L    J     ELECTRONS     EIGENVALUE                DELTA OF EIGENV.

                          1S1/2  1.0  0.0  0.5     2.000       -0.7276812E+03                 0.2822496E-04
                          2S1/2  2.0  0.0  0.5     2.000       -0.1028194E+03                 0.1725465E-04
                          2P1/2  2.0  1.0  0.5     2.000       -0.9468016E+02                 0.1864325E-04
                          2P3/2  2.0  1.0  1.5     4.000       -0.9076266E+02                 0.1832345E-04
                          3S1/2  3.0  0.0  0.5     2.000       -0.1747094E+02                 0.5979346E-05
                          3P1/2  3.0  1.0  0.5     2.000       -0.1436574E+02                 0.6275079E-05
                          3P3/2  3.0  1.0  1.5     4.000       -0.1371946E+02                 0.5984426E-05
                          3D3/2  3.0  2.0  1.5     4.000       -0.8203697E+01                 0.6709395E-05
                          3D5/2  3.0  2.0  2.5     6.000       -0.8081013E+01                 0.6610438E-05
                          4S1/2  4.0  0.0  0.5     2.000       -0.2338238E+01                 0.2446887E-06
                          4P1/2  4.0  1.0  0.5     2.000       -0.1452045E+01                 0.2971982E-06
                          4P3/2  4.0  1.0  1.5     4.000       -0.1358936E+01                 0.3186552E-06
                          4D3/2  4.0  2.0  1.5     4.000       -0.1184046E+00                 0.3378248E-06
                          4D5/2  4.0  2.0  2.5     1.000       -0.1108976E+00                 0.3342679E-06
                          5S1/2  5.0  0.0  0.5     1.000       -0.1320069E+00                 0.9757102E-07


                                        NUCLEAR CHARGE=   42.000000
                            INTEGRAL OF CHARGE DENSITY=   42.000000
                           SUM OF THE ORBITAL ENERGIES=  -2426.9970
                                          TOTAL ENERGY=  -4046.9128
                                        KINETIC ENERGY=   4198.0886
                             NUCLEAR ATTRACTION ENERGY=  -9783.9685
                             ELECTRON REPULSION ENERGY=   1660.3903
                                       EXCHANGE ENERGY=   -121.4232

 *******************************************************************************

                             D I R A C   E X I T
 NORMAL TERMINATION



 =================
 Timing Statistics
 =================
  
 Total Used :                     CPU=        0.45      System=        0.01     Elapsed=        0.47

 Calls  Section                     ( Mean, Percentage )
 ---------------------------------------------------------------------------------------------------
     2  ><      ................      0.00    0.00             0.00    0.00             0.00    0.00
     1  EXIT PROCEDURE .........      0.45  100.00             0.01  100.00             0.47  100.00


 Currently Open Files (EXIT00)
 ====================

 Unit    Access Format  Status   Type       Ident (file)
 -------------------------------------------------------
   3      SEQ    FORM   TRANSP  NORMAL      LOGFILE
                                          ( logfile )
 
Create Mo   file=TZP-Mo.3d
XC
  GGA PBE
End
relativistic ZORA
Corepotentials t12.rel
End

 *******************************************************************************
 *                                                                             *
 *  -------------------------------------                                      *
 *   Amsterdam Density Functional  (ADF)         2019                          *
 *  -------------------------------------                                      *
 *                                               r74351 2019-04-25             *
 *                                                                             *
 *                                                                             *
 *                              =================                              *
 *                              |               |                              *
 *                              |     A D F     |                              *
 *                              |               |                              *
 *                              =================                              *
 *                                                                             *
 *                                                                             *
 *   Online information and documentation:  https://www.scm.com/support/       *
 *   E-mail:  support@scm.com   info@scm.com                                   *
 *                                                                             *
 *   Scientific publications using ADF results must be properly referenced     *
 *   See the User Manuals (or the web site) for recommended citations          *
 *   The terms and conditions of the End User License Agreement apply to       *
 *   the use of ADF, https://www.scm.com/license-terms/                        *
 *                                                                             *
 **********************  x86_64_linux_intel / intelmpi  ************************
 
 Licensed to: Dr. Carles Bo / Institute of Chemical Research of Catalonia ( (ICIQ) / Tarragona / Spain 2022-11-28 14:37:29
 SCM User ID: u7609
  
 ADF 2019  RunTime: Feb14-2023 04:30:28  Nodes: 1  Procs: 1

 Temporary files are created in /scratch/kid_0.250906883

 Molybdenum (TZP, 3d frozen)



 ===========================
 A T T A C H E D   F I L E S
 ===========================
  
 CREATE - Data File:    TZP-Mo.3d
                        Molybdenum (TZP, 3d frozen)
 Core Potentials:
         file : t12.rel



 ===============================
 M O D E L   P A R A M E T E R S
 ===============================
  
 DENSITY FUNCTIONAL POTENTIAL (scf)
    LDA:                               PW92                                    == Not Default ==
    Gradient Corrections:              PBEc PBEx                               == Not Default ==

 SPIN  (restricted / unrestr.)
    Molecule:                          Restricted                               

 OTHER ASPECTS
    Relativistic Corrections:          scalar (ZORA,MAPA)                      == Not Default ==

    Nuclear Charge Density Model:      Point Charge Nuclei                      
    Core Treatment:                    Frozen Orbital(s)                        

    Hyperfine or Zeeman Interaction:   ---                                      



 =====================================
 S Y M M E T R Y ,   E L E C T R O N S
 =====================================
  
 Symmetry: ATOM

 Irreducible Representations, including subspecies
 -------------------------------------------------
 S
 P:x  P:y  P:z
 D:z2  D:x2-y2  D:xy  D:xz  D:yz
 F:z3  F:z  F:xyz  F:z2x  F:z2y  F:x  F:y


 Configuration of Valence Electrons
 ==================================

          Occupation Numbers
          -------------------------------------------------
 S        2 1
 P        6
 D        5
 F        0
          -------------------------------------------------

 Total:   14

 Net Charge: 0 (Nuclei minus Electrons)

 Preset values for MO occupations will be applied through SCF cycle no. 1000000
 Thereafter, the program will assign electrons to MOs that are spatially
 similar to the occupied MOs in a "reference" cycle ("KeepOrbitals").
 The reference cycle is always the PREVIOUS cycle: it will evolve with
 the SCF procedure.



 ================================
 (Slater-type)  F U N C T I O N S  ***  (Basis and Fit)  ***
 ================================
  

 Atom Type    1  (Mo)
 ==============

 Valence Basis Sets:  18
 -----------------------
   1 S   30.500000
   2 S   17.750000
   3 S    8.350000
   2 P   18.600000
   3 P    8.700000
   3 D   10.050000
   4 S    5.100000
   4 S    3.300000
   5 S    2.150000
   5 S    1.350000
   5 S    0.870000
   4 P    4.950000
   4 P    3.300000
   4 P    2.300000
   4 D    3.500000
   4 D    1.850000
   4 D    0.970000
   5 P    1.350000

 Frozen Core Shells
 ------------------
    S:  3
    P:  2
    D:  1


 BAS: List of all Elementary Cartesian Basis Functions
 =====================================================

 The numbering in the list below (to the right of the function characteristics) is referred
 to in print-outs of MO eigenvectors and Mulliken populations in the BAS representation
 (as contrasted to the SFO representation).

 Notes:
 1. The functions are characterized by a polynomial prefactor (powers of x,y,z and r) and
    an exponential decay factor alpha.
 2. Since the basis sets are specific for an atom TYPE, the individual functions occur on
    all atoms of that type.
 3. The word 'Core' in the left margin signals that it is a Core Function (CF) : not a
    degree of freedom in the valence set, but only used to ensure orthogonalization of
    the other valence basis functions on the frozen Core Orbitals.


 (power of) X  Y  Z  R     Alpha  on Atom
            ==========     =====     ==========

 Mo                                   1
                                  ---------------------------------------------------------------------------
    Core    0  0  0  0    30.500      1
    Core    0  0  0  1    17.750      2
    Core    0  0  0  2     8.350      3
    Core    1  0  0  0    18.600      4
    Core    0  1  0  0    18.600      5
    Core    0  0  1  0    18.600      6
    Core    1  0  0  1     8.700      7
    Core    0  1  0  1     8.700      8
    Core    0  0  1  1     8.700      9
    Core    2  0  0  0    10.050     10
    Core    1  1  0  0    10.050     11
    Core    1  0  1  0    10.050     12
    Core    0  2  0  0    10.050     13
    Core    0  1  1  0    10.050     14
    Core    0  0  2  0    10.050     15
            0  0  0  3     5.100     16
            0  0  0  3     3.300     17
            0  0  0  4     2.150     18
            0  0  0  4     1.350     19
            0  0  0  4     0.870     20
            1  0  0  2     4.950     21
            0  1  0  2     4.950     22
            0  0  1  2     4.950     23
            1  0  0  2     3.300     24
            0  1  0  2     3.300     25
            0  0  1  2     3.300     26
            1  0  0  2     2.300     27
            0  1  0  2     2.300     28
            0  0  1  2     2.300     29
            2  0  0  1     3.500     30
            1  1  0  1     3.500     31
            1  0  1  1     3.500     32
            0  2  0  1     3.500     33
            0  1  1  1     3.500     34
            0  0  2  1     3.500     35
            2  0  0  1     1.850     36
            1  1  0  1     1.850     37
            1  0  1  1     1.850     38
            0  2  0  1     1.850     39
            0  1  1  1     1.850     40
            0  0  2  1     1.850     41
            2  0  0  1     0.970     42
            1  1  0  1     0.970     43
            1  0  1  1     0.970     44
            0  2  0  1     0.970     45
            0  1  1  1     0.970     46
            0  0  2  1     0.970     47
            1  0  0  3     1.350     48
            0  1  0  3     1.350     49
            0  0  1  3     1.350     50

 Total number of charge fitting functions (nprimf)       230
 Total number of Cartesian basis functions (naos)         50
 Total number of Cartesian core functions  (ncos)         15



 BAS: List of all Elementary Cartesian Basis Functions
 =====================================================

 The numbering in the list below (to the right of the function characteristics) is referred
 to in print-outs of MO eigenvectors and Mulliken populations in the BAS representation
 (as contrasted to the SFO representation).

 Notes:
 1. The functions are characterized by a polynomial prefactor (powers of x,y,z and r) and
    an exponential decay factor alpha.
 2. Since the basis sets are specific for an atom TYPE, the individual functions occur on
    all atoms of that type.
 3. The word 'Core' in the left margin signals that it is a Core Function (CF) : not a
    degree of freedom in the valence set, but only used to ensure orthogonalization of
    the other valence basis functions on the frozen Core Orbitals.


 (power of) X  Y  Z  R     Alpha  on Atom
            ==========     =====     ==========

 Mo                                   1
                                  ---------------------------------------------------------------------------
    Core    0  0  0  0    30.500      1
    Core    0  0  0  1    17.750      2
    Core    0  0  0  2     8.350      3
    Core    1  0  0  0    18.600      4
    Core    0  1  0  0    18.600      5
    Core    0  0  1  0    18.600      6
    Core    1  0  0  1     8.700      7
    Core    0  1  0  1     8.700      8
    Core    0  0  1  1     8.700      9
    Core    2  0  0  0    10.050     10
    Core    1  1  0  0    10.050     11
    Core    1  0  1  0    10.050     12
    Core    0  2  0  0    10.050     13
    Core    0  1  1  0    10.050     14
    Core    0  0  2  0    10.050     15
            0  0  0  3     5.100     16
            0  0  0  3     3.300     17
            0  0  0  4     2.150     18
            0  0  0  4     1.350     19
            0  0  0  4     0.870     20
            1  0  0  2     4.950     21
            0  1  0  2     4.950     22
            0  0  1  2     4.950     23
            1  0  0  2     3.300     24
            0  1  0  2     3.300     25
            0  0  1  2     3.300     26
            1  0  0  2     2.300     27
            0  1  0  2     2.300     28
            0  0  1  2     2.300     29
            2  0  0  1     3.500     30
            1  1  0  1     3.500     31
            1  0  1  1     3.500     32
            0  2  0  1     3.500     33
[...]
 <Feb14-2023> <08:21:34>  >>>> ENGRAD
 <Feb14-2023> <08:23:30>  current energy                              -16.20804013 Hartree
 <Feb14-2023> <08:23:30>  energy change                      -0.00002459     0.00100000    T
 <Feb14-2023> <08:23:30>  constrained gradient max            0.00166070     0.00100000    F
 <Feb14-2023> <08:23:30>  constrained gradient rms            0.00032928     0.00066667    T
 <Feb14-2023> <08:23:30>  gradient max                        0.00166070
 <Feb14-2023> <08:23:30>  gradient rms                        0.00032928
 <Feb14-2023> <08:23:30>  cart. step max                      0.00292828     0.01000000    T
 <Feb14-2023> <08:23:30>  cart. step rms                      0.00104328     0.00666667    T
  Coordinates in Geometry Cycle 35
    Atom         X           Y           Z   (Angstrom)
    1.Mo        0.082587   -2.632572    2.467915
    2.P        -0.056544   -0.018337   -0.015337
    3.Mo        0.105315    2.597605   -2.455874
    4.Mo       -0.044281    2.556622    2.495932
    5.Mo        2.488470   -2.567669   -0.055913
    6.Mo        2.616489    2.481311   -0.056116
    7.Mo       -2.636384    2.468947    0.174731
    8.Mo       -2.701739   -2.442176   -0.108991
    9.Mo       -2.481084   -0.068532   -2.611326
   10.Mo       -2.482198    0.084470    2.664360
   11.Mo        2.543029   -0.221690    2.598492
   12.Mo        2.555589    0.111598   -2.627217
   13.O         0.860542   -0.940799    0.862946
   14.O        -1.011782   -0.860522   -0.884531
   15.O         0.869129    0.881679   -0.905501
   16.O        -0.893811    0.905011    0.943750
   17.O        -3.053500   -1.158486    1.251397
   18.O         3.065811   -1.129962   -1.145616
   19.O        -3.013227    1.120134   -1.166246
   20.O         3.010655    1.207468    1.242371
   21.O         1.344501   -1.282269   -3.112724
   22.O         1.146082    1.218794    3.009768
   23.O        -1.110377    1.096907   -3.074798
   24.O        -1.162970   -1.163665    3.086581
   25.O        -1.207933    2.983420   -1.206883
   26.O        -1.207371   -3.010544    1.190049
   27.O         1.138159    3.075110    1.093889
   28.O         1.203875   -3.111721   -1.174920
   29.O         3.390006   -1.466051    1.553329
   30.O        -3.511426   -1.490349   -1.471934
   31.O         3.412231    1.490472   -1.475414
   32.O        -3.453948    1.459532    1.534003
   33.O         1.426021   -1.472733    3.445516
   34.O         1.518542    1.466631   -3.407385
   35.O        -1.536353    1.572990    3.393538
   36.O        -1.804077   -1.668089   -3.431520
   37.O        -1.571396   -3.453280   -1.401878
   38.O        -1.546636    3.385837    1.439797
   39.O         1.544815   -3.383047    1.546422
   40.O         1.539617    3.379629   -1.527073
   41.O        -0.207112   -3.807672    3.696449
   42.O         3.824299   -0.097187   -3.775262
   43.O        -0.184234    3.751478   -3.704181
   44.O         0.201594    3.802075    3.665614
   45.O         3.764207   -3.727279   -0.229400
   46.O         3.790657    3.711177    0.223111
   47.O        -3.834977    3.657967   -0.177687
   48.O        -3.892514   -3.641187    0.239679
   49.O        -3.704511    0.324705   -3.763997
   50.O        -3.685063   -0.182111    3.870174
   51.O         3.701051    0.137108    3.825909
   52.H        -1.595807   -2.399956   -2.767761
   53.H        -0.598964   -3.346643   -1.210338
   54.H         1.123109   -1.975084   -2.417631
 <Feb14-2023> <08:23:31>  >>>> CORORT
 <Feb14-2023> <08:23:31>  >>>> CLSMAT
 <Feb14-2023> <08:23:31>  >>>> ORTHON
 <Feb14-2023> <08:23:31>  >>>> GENPT
 <Feb14-2023> <08:23:31>  Block Length= 128
 <Feb14-2023> <08:23:32>  >>>> PTBAS
 <Feb14-2023> <08:23:50>  combining surface points...
 <Feb14-2023> <08:23:50>  combining surface points...
 <Feb14-2023> <08:23:50>  combining surface points...
 <Feb14-2023> <08:23:51>  >>>> CYCLE
 <Feb14-2023> <08:24:03>              |Error|         MaxErr       Wt(A-DIIS)
 <Feb14-2023> <08:24:03>      1      0.07415994      0.00485437
 <Feb14-2023> <08:24:15>      2      0.36697130      0.02800314    100.0
 <Feb14-2023> <08:24:26>      3      0.09464249      0.00613271    100.0
 <Feb14-2023> <08:24:37>      4      0.05852327      0.00449112      3.5
 <Feb14-2023> <08:24:48>      5      0.12628761      0.00848708    100.0
 <Feb14-2023> <08:25:00>      6      0.09731531      0.00771637    100.0
 <Feb14-2023> <08:25:11>      7      0.10237221      0.00917586    100.0
 <Feb14-2023> <08:25:22>      8      0.02974671      0.00226678      1.3
 <Feb14-2023> <08:25:33>      9      0.00820971      0.00097779      0.0
 <Feb14-2023> <08:25:45>     10      0.00407026      0.00050594      0.0
 <Feb14-2023> <08:25:56>     11      0.00190726      0.00018416      0.0
 <Feb14-2023> <08:26:07>     12      0.00079014      0.00006385      0.0
 <Feb14-2023> <08:26:18>     13      0.00060534      0.00005861      0.0
 <Feb14-2023> <08:26:29>     14      0.00013081      0.00001342      0.0
 <Feb14-2023> <08:26:40>     15      0.00006605      0.00000898      0.0
 <Feb14-2023> <08:26:51>     16      0.00008614      0.00000879      0.0
 <Feb14-2023> <08:27:02>     17      0.00005157      0.00000535      0.0
 <Feb14-2023> <08:27:13>     18      0.00001101      0.00000095      0.0
 <Feb14-2023> <08:27:24>     19      0.00000930      0.00000098      0.0
 <Feb14-2023> <08:27:28>  SCF converged
 <Feb14-2023> <08:27:36>     20      0.00000675      0.00000069      0.0
 <Feb14-2023> <08:27:40>  >>>> TOTEN
 <Feb14-2023> <08:27:55>  >>>> POPAN
 <Feb14-2023> <08:27:55>  >>>> DEBYE
 <Feb14-2023> <08:27:56>  >>>> ENGRAD
 <Feb14-2023> <08:29:52>  current energy                              -16.20806147 Hartree
 <Feb14-2023> <08:29:52>  energy change                      -0.00002134     0.00100000    T
 <Feb14-2023> <08:29:52>  constrained gradient max            0.00107756     0.00100000    F
 <Feb14-2023> <08:29:52>  constrained gradient rms            0.00028131     0.00066667    T
 <Feb14-2023> <08:29:52>  gradient max                        0.00107756
 <Feb14-2023> <08:29:52>  gradient rms                        0.00028131
 <Feb14-2023> <08:29:52>  cart. step max                      0.00275167     0.01000000    T
 <Feb14-2023> <08:29:52>  cart. step rms                      0.00084370     0.00666667    T
  Coordinates in Geometry Cycle 36
    Atom         X           Y           Z   (Angstrom)
    1.Mo        0.083210   -2.633464    2.467805
    2.P        -0.056488   -0.017861   -0.014523
    3.Mo        0.104536    2.596972   -2.455063
    4.Mo       -0.044810    2.557266    2.495120
    5.Mo        2.489393   -2.566243   -0.056643
    6.Mo        2.616583    2.480132   -0.056774
    7.Mo       -2.637317    2.467865    0.174810
    8.Mo       -2.701072   -2.441325   -0.108680
    9.Mo       -2.480688   -0.069854   -2.610913
   10.Mo       -2.481951    0.084491    2.666418
   11.Mo        2.541680   -0.221360    2.598260
   12.Mo        2.556653    0.112537   -2.628838
   13.O         0.860552   -0.940613    0.863949
   14.O        -1.011782   -0.860150   -0.883564
   15.O         0.869191    0.882238   -0.904695
   16.O        -0.894218    0.905272    0.944280
   17.O        -3.053402   -1.157342    1.251072
   18.O         3.067643   -1.129425   -1.145970
   19.O        -3.014730    1.121351   -1.167746
   20.O         3.010637    1.206462    1.241828
   21.O         1.345742   -1.282018   -3.112622
   22.O         1.145016    1.218830    3.009518
   23.O        -1.109309    1.095777   -3.073565
   24.O        -1.163734   -1.163963    3.087065
   25.O        -1.208114    2.983290   -1.206248
   26.O        -1.206748   -3.009110    1.188922
   27.O         1.138917    3.074655    1.093752
   28.O         1.203232   -3.109407   -1.174363
   29.O         3.388799   -1.466334    1.553536
   30.O        -3.510741   -1.489844   -1.472397
   31.O         3.412663    1.489710   -1.476500
   32.O        -3.454020    1.459775    1.534260
   33.O         1.425128   -1.473233    3.445498
   34.O         1.519317    1.467331   -3.407684
   35.O        -1.537436    1.573396    3.394601
   36.O        -1.802134   -1.668762   -3.431407
   37.O        -1.571709   -3.454004   -1.401407
   38.O        -1.546099    3.385993    1.439842
   39.O         1.544254   -3.383530    1.545773
   40.O         1.539694    3.379380   -1.527018
   41.O        -0.207152   -3.809234    3.695541
   42.O         3.824185   -0.096692   -3.778014
   43.O        -0.185405    3.750075   -3.704000
   44.O         0.202091    3.802340    3.664946
   45.O         3.764181   -3.726983   -0.229914
   46.O         3.791528    3.709226    0.222272
   47.O        -3.834670    3.658118   -0.177481
   48.O        -3.892128   -3.639898    0.240525
   49.O        -3.703455    0.324560   -3.763821
   50.O        -3.686046   -0.182948    3.870773
   51.O         3.699416    0.136944    3.826015
   52.H        -1.596227   -2.401795   -2.768160
   53.H        -0.599446   -3.346021   -1.209643
   54.H         1.122958   -1.973509   -2.416457
 <Feb14-2023> <08:29:52>  >>>> CORORT
 <Feb14-2023> <08:29:53>  >>>> CLSMAT
 <Feb14-2023> <08:29:53>  >>>> ORTHON
 <Feb14-2023> <08:29:53>  >>>> GENPT
 <Feb14-2023> <08:29:53>  Block Length= 128
 <Feb14-2023> <08:29:54>  >>>> PTBAS
 <Feb14-2023> <08:30:12>  combining surface points...
 <Feb14-2023> <08:30:12>  combining surface points...
 <Feb14-2023> <08:30:12>  combining surface points...
 <Feb14-2023> <08:30:12>  >>>> CYCLE
 <Feb14-2023> <08:30:25>              |Error|         MaxErr       Wt(A-DIIS)
 <Feb14-2023> <08:30:25>      1      0.07409443      0.00489030
 <Feb14-2023> <08:30:36>      2      0.36917091      0.02798460    100.0
 <Feb14-2023> <08:30:48>      3      0.10626631      0.00729361    100.0
 <Feb14-2023> <08:30:59>      4      0.05626654      0.00325478      2.3
 <Feb14-2023> <08:31:10>      5      0.12604234      0.00857869    100.0
 <Feb14-2023> <08:31:21>      6      0.09336980      0.00634987    100.0
 <Feb14-2023> <08:31:33>      7      0.05637009      0.00405492      3.1
 <Feb14-2023> <08:31:44>      8      0.01333773      0.00137983      0.4
 <Feb14-2023> <08:31:55>      9      0.00741318      0.00069404      0.0
 <Feb14-2023> <08:32:06>     10      0.00386639      0.00042919      0.0
 <Feb14-2023> <08:32:18>     11      0.00132652      0.00014077      0.0
 <Feb14-2023> <08:32:29>     12      0.00066188      0.00006401      0.0
 <Feb14-2023> <08:32:40>     13      0.00058002      0.00006798      0.0
 <Feb14-2023> <08:32:51>     14      0.00054277      0.00006221      0.0
 <Feb14-2023> <08:33:02>     15      0.00013640      0.00002134      0.0
 <Feb14-2023> <08:33:13>     16      0.00003848      0.00000399      0.0
 <Feb14-2023> <08:33:24>     17      0.00009511      0.00000975      0.0
 <Feb14-2023> <08:33:35>     18      0.00003462      0.00000269      0.0
 <Feb14-2023> <08:33:46>     19      0.00001256      0.00000120      0.0
 <Feb14-2023> <08:33:57>     20      0.00001727      0.00000182      0.0
 <Feb14-2023> <08:34:08>     21      0.00000947      0.00000075      0.0
 <Feb14-2023> <08:34:12>  SCF converged
 <Feb14-2023> <08:34:20>     22      0.00000370      0.00000039      0.0
 <Feb14-2023> <08:34:24>  >>>> TOTEN
 <Feb14-2023> <08:34:39>  >>>> POPAN
 <Feb14-2023> <08:34:39>  >>>> DEBYE
 <Feb14-2023> <08:34:40>  >>>> ENGRAD
 <Feb14-2023> <08:36:36>  current energy                              -16.20807512 Hartree
 <Feb14-2023> <08:36:36>  energy change                      -0.00001365     0.00100000    T
 <Feb14-2023> <08:36:36>  constrained gradient max            0.00098244     0.00100000    T
 <Feb14-2023> <08:36:36>  constrained gradient rms            0.00025897     0.00066667    T
 <Feb14-2023> <08:36:36>  gradient max                        0.00098244
 <Feb14-2023> <08:36:36>  gradient rms                        0.00025897
 <Feb14-2023> <08:36:36>  cart. step max                      0.00246429     0.01000000    T
 <Feb14-2023> <08:36:36>  cart. step rms                      0.00076435     0.00666667    T
 <Feb14-2023> <08:36:36>  GEOMETRY CONVERGED
 <Feb14-2023> <08:36:36>  Calculating Energy Terms for Final Geometry
  Coordinates in Geometry Cycle 36
    Atom         X           Y           Z   (Angstrom)
    1.Mo        0.083210   -2.633464    2.467805
    2.P        -0.056488   -0.017861   -0.014523
    3.Mo        0.104536    2.596972   -2.455063
    4.Mo       -0.044810    2.557266    2.495120
    5.Mo        2.489393   -2.566243   -0.056643
    6.Mo        2.616583    2.480132   -0.056774
    7.Mo       -2.637317    2.467865    0.174810
    8.Mo       -2.701072   -2.441325   -0.108680
    9.Mo       -2.480688   -0.069854   -2.610913
   10.Mo       -2.481951    0.084491    2.666418
   11.Mo        2.541680   -0.221360    2.598260
   12.Mo        2.556653    0.112537   -2.628838
   13.O         0.860552   -0.940613    0.863949
   14.O        -1.011782   -0.860150   -0.883564
   15.O         0.869191    0.882238   -0.904695
   16.O        -0.894218    0.905272    0.944280
   17.O        -3.053402   -1.157342    1.251072
   18.O         3.067643   -1.129425   -1.145970
   19.O        -3.014730    1.121351   -1.167746
   20.O         3.010637    1.206462    1.241828
   21.O         1.345742   -1.282018   -3.112622
   22.O         1.145016    1.218830    3.009518
   23.O        -1.109309    1.095777   -3.073565
   24.O        -1.163734   -1.163963    3.087065
   25.O        -1.208114    2.983290   -1.206248
   26.O        -1.206748   -3.009110    1.188922
   27.O         1.138917    3.074655    1.093752
   28.O         1.203232   -3.109407   -1.174363
   29.O         3.388799   -1.466334    1.553536
   30.O        -3.510741   -1.489844   -1.472397
   31.O         3.412663    1.489710   -1.476500
   32.O        -3.454020    1.459775    1.534260
   33.O         1.425128   -1.473233    3.445498
   34.O         1.519317    1.467331   -3.407684
   35.O        -1.537436    1.573396    3.394601
   36.O        -1.802134   -1.668762   -3.431407
   37.O        -1.571709   -3.454004   -1.401407
   38.O        -1.546099    3.385993    1.439842
   39.O         1.544254   -3.383530    1.545773
   40.O         1.539694    3.379380   -1.527018
   41.O        -0.207152   -3.809234    3.695541
   42.O         3.824185   -0.096692   -3.778014
   43.O        -0.185405    3.750075   -3.704000
   44.O         0.202091    3.802340    3.664946
   45.O         3.764181   -3.726983   -0.229914
   46.O         3.791528    3.709226    0.222272
   47.O        -3.834670    3.658118   -0.177481
   48.O        -3.892128   -3.639898    0.240525
   49.O        -3.703455    0.324560   -3.763821
   50.O        -3.686046   -0.182948    3.870773
   51.O         3.699416    0.136944    3.826015
   52.H        -1.596227   -2.401795   -2.768160
   53.H        -0.599446   -3.346021   -1.209643
   54.H         1.122958   -1.973509   -2.416457
 <Feb14-2023> <08:36:36>  >>>> CORORT
 <Feb14-2023> <08:36:37>  >>>> CLSMAT
 <Feb14-2023> <08:36:37>  >>>> ORTHON
 <Feb14-2023> <08:36:37>  >>>> GENPT
 <Feb14-2023> <08:36:37>  Block Length= 128
 <Feb14-2023> <08:36:38>  >>>> PTBAS
 <Feb14-2023> <08:36:56>  combining surface points...
 <Feb14-2023> <08:36:56>  combining surface points...
 <Feb14-2023> <08:36:56>  combining surface points...
 <Feb14-2023> <08:36:56>  >>>> CYCLE
 <Feb14-2023> <08:37:09>              |Error|         MaxErr       Wt(A-DIIS)
 <Feb14-2023> <08:37:09>      1      0.07351478      0.00602139
 <Feb14-2023> <08:37:21>      2      0.36930227      0.03539038    100.0
 <Feb14-2023> <08:37:32>      3      0.09538888      0.00771555    100.0
 <Feb14-2023> <08:37:43>      4      0.05868589      0.00432690      3.4
 <Feb14-2023> <08:37:55>      5      0.12687210      0.01075635    100.0
 <Feb14-2023> <08:38:06>      6      0.09154250      0.00759044    100.0
 <Feb14-2023> <08:38:17>      7      0.11905899      0.00989184    100.0
 <Feb14-2023> <08:38:28>      8      0.03315050      0.00283623      1.9
 <Feb14-2023> <08:38:40>      9      0.00805283      0.00107236      0.1
 <Feb14-2023> <08:38:51>     10      0.00390357      0.00047352      0.0
 <Feb14-2023> <08:39:02>     11      0.00165396      0.00018226      0.0
 <Feb14-2023> <08:39:13>     12      0.00069710      0.00006114      0.0
 <Feb14-2023> <08:39:24>     13      0.00065526      0.00006301      0.0
 <Feb14-2023> <08:39:35>     14      0.00016745      0.00001590      0.0
 <Feb14-2023> <08:39:46>     15      0.00006909      0.00001163      0.0
 <Feb14-2023> <08:39:57>     16      0.00009426      0.00001313      0.0
 <Feb14-2023> <08:40:09>     17      0.00005878      0.00000618      0.0
 <Feb14-2023> <08:40:20>     18      0.00002266      0.00000208      0.0
 <Feb14-2023> <08:40:31>     19      0.00000388      0.00000036      0.0
 <Feb14-2023> <08:40:34>  SCF converged
 <Feb14-2023> <08:40:42>     20      0.00000722      0.00000076      0.0
 <Feb14-2023> <08:40:51>  >>>> TOTEN
 <Feb14-2023> <08:41:28>  QTAIM: determining topology...
 <Feb14-2023> <08:41:57>  >>>> POPAN
 <Feb14-2023> <08:41:57>  >>>> DEBYE
 <Feb14-2023> <08:41:57>  >>>> AMETS
 <Feb14-2023> <08:41:57>  >>>> POPUL
 <Feb14-2023> <08:41:58>   Bond Energy         -16.20807512 a.u.
 <Feb14-2023> <08:41:58>   Bond Energy        -441.04416441 eV
 <Feb14-2023> <08:41:58>   Bond Energy      -10170.72       kcal/mol
 <Feb14-2023> <08:41:58>  >>>> ENHESS
 <Feb14-2023> <08:43:13>  === NUCLEUS:     1
 <Feb14-2023> <08:58:09>  === NUCLEUS:     2
 <Feb14-2023> <09:11:12>  === NUCLEUS:     3
 <Feb14-2023> <09:24:15>  === NUCLEUS:     4
 <Feb14-2023> <09:37:05>  === NUCLEUS:     5
 <Feb14-2023> <09:49:53>  === NUCLEUS:     6
 <Feb14-2023> <10:02:41>  === NUCLEUS:     7
 <Feb14-2023> <10:15:27>  === NUCLEUS:     8
 <Feb14-2023> <10:28:30>  === NUCLEUS:     9
 <Feb14-2023> <10:41:04>  === NUCLEUS:    10
 <Feb14-2023> <10:53:51>  === NUCLEUS:    11
 <Feb14-2023> <11:06:52>  === NUCLEUS:    12
 <Feb14-2023> <11:19:53>  === NUCLEUS:    13
 <Feb14-2023> <11:32:09>  === NUCLEUS:    14
 <Feb14-2023> <11:44:24>  === NUCLEUS:    15
 <Feb14-2023> <11:56:53>  === NUCLEUS:    16
 <Feb14-2023> <12:09:51>  === NUCLEUS:    17
 <Feb14-2023> <12:21:54>  === NUCLEUS:    18
 <Feb14-2023> <12:34:12>  === NUCLEUS:    19
 <Feb14-2023> <12:46:29>  === NUCLEUS:    20
 <Feb14-2023> <12:58:31>  === NUCLEUS:    21
 <Feb14-2023> <13:10:47>  === NUCLEUS:    22
 <Feb14-2023> <13:22:51>  === NUCLEUS:    23
 <Feb14-2023> <13:34:53>  === NUCLEUS:    24
 <Feb14-2023> <13:46:55>  === NUCLEUS:    25
 <Feb14-2023> <13:58:57>  === NUCLEUS:    26
 <Feb14-2023> <14:11:00>  === NUCLEUS:    27
 <Feb14-2023> <14:23:04>  === NUCLEUS:    28
 <Feb14-2023> <14:34:52>  === NUCLEUS:    29
 <Feb14-2023> <14:46:26>  === NUCLEUS:    30
 <Feb14-2023> <14:58:42>  === NUCLEUS:    31
 <Feb14-2023> <15:10:57>  === NUCLEUS:    32
 <Feb14-2023> <15:23:01>  === NUCLEUS:    33
 <Feb14-2023> <15:35:04>  === NUCLEUS:    34
 <Feb14-2023> <15:47:06>  === NUCLEUS:    35
 <Feb14-2023> <15:58:56>  === NUCLEUS:    36
 <Feb14-2023> <16:11:13>  === NUCLEUS:    37
 <Feb14-2023> <16:23:16>  === NUCLEUS:    38
 <Feb14-2023> <16:35:06>  === NUCLEUS:    39
 <Feb14-2023> <16:47:23>  === NUCLEUS:    40
 <Feb14-2023> <16:59:41>  === NUCLEUS:    41
 <Feb14-2023> <17:11:44>  === NUCLEUS:    42
 <Feb14-2023> <17:23:46>  === NUCLEUS:    43
 <Feb14-2023> <17:35:48>  === NUCLEUS:    44
 <Feb14-2023> <17:47:51>  === NUCLEUS:    45
 <Feb14-2023> <17:59:24>  === NUCLEUS:    46
 <Feb14-2023> <18:11:11>  === NUCLEUS:    47
 <Feb14-2023> <18:23:00>  === NUCLEUS:    48
 <Feb14-2023> <18:35:02>  === NUCLEUS:    49
 <Feb14-2023> <18:47:05>  === NUCLEUS:    50
 <Feb14-2023> <18:59:06>  === NUCLEUS:    51
 <Feb14-2023> <19:11:10>  === NUCLEUS:    52
 <Feb14-2023> <19:23:40>  === NUCLEUS:    53
 <Feb14-2023> <19:35:41>  === NUCLEUS:    54
 <Feb14-2023> <19:47:42>  >>>> CALC_HESS_PMAT
 <Feb14-2023> <19:54:07>  >>>> CALC_HESS_WMAT
 <Feb14-2023> <19:54:45>  NORMAL TERMINATION
 <Feb14-2023> <19:54:45>  END
