
 *******************************************************************************
 *                                                                             *
 *  -------------------------------------                                      *
 *   Amsterdam Density Functional  (ADF)         2019                          *
 *  -------------------------------------                                      *
 *                                               r74351 2019-04-25             *
 *                                                                             *
 *                                                                             *
 *                            =====================                            *
 *                            |                   |                            *
 *                            |     D I R A C     |                            *
 *                            |                   |                            *
 *                            =====================                            *
 *                                                                             *
 *                                                                             *
 *   Online information and documentation:  https://www.scm.com/support/       *
 *   E-mail:  support@scm.com   info@scm.com                                   *
 *                                                                             *
 *   Scientific publications using ADF results must be properly referenced     *
 *   See the User Manuals (or the web site) for recommended citations          *
 *   The terms and conditions of the End User License Agreement apply to       *
 *   the use of ADF, https://www.scm.com/license-terms/                        *
 *                                                                             *
 **********************  x86_64_linux_intel / intelmpi  ************************
 
 Licensed to: Dr. Carles Bo / Institute of Chemical Research of Catalonia ( (ICIQ) / Tarragona / Spain 2022-11-28 14:37:29
 SCM User ID: u7609
  
 DIRAC 2019  RunTime: Feb09-2023 21:43:11  Nodes: 1  Procs: 1

 Temporary files are created in /scratch/kid_0.604059907

1
 HYDROGEN ATOM RELATIVISTIC, Point Nuc, A and c from libtc   
 N J RN H ZN XION ANUC CLIGHT
 5000    1100.00000000197.36710137  1.00000000  0.00000000    1.007825  0.1370360E+03
  PH   PHI     EPS        DEL        DELRVR
  0.30  0.30     2500.00  0.00001000  0.00001000
 IDIRC  NC1  NDEBU NPRIN  IPUN IRCOR IWCOR
   1   300     0     0     0     0     0
   XALPHA      XLATTER      RNUC
  0.70000000  0.00000000  0.00000000 Point Charge
   XN   XL   XJ      XE          XZ      XDELL
  1.0  0.0  0.5      -1.000       1.000     0.00000
 ICORP=  0  NPCL=  0  DEMP=0.00  PEPS=0.000000
 R(1)=  0.1000000E-08 D=  0.1005080E+01 RNUC=  0.0000000E+00
 converged at cycle   32  DENSITY AVERAGING    0.2400
  MAXIMUM ERROR IN R.V(R) IS   0.79874357E-05
 Q,EY,EV,EZ,ESUM,ETOT,RHO  0.100000E+01 -0.266614E+00 -0.619969E+00 -0.910779E+00 -0.203940E+00 -0.415998E+00  0.337036E-17


 DIRAC CALCULATION
1                    HYDROGEN ATOM RELATIVISTIC, Point Nuc, A and c from libtc


 EXCHANGE COEFFICIENT=  0.7000000           TAIL CORRECTION=  0.           NUCLEAR RADIUS=  0.000E+00
0                       ORBITAL    N    L    J     ELECTRONS     EIGENVALUE                DELTA OF EIGENV.

                          1S1/2  1.0  0.0  0.5     1.000       -0.2039397E+00                 0.2720093E-06


                                        NUCLEAR CHARGE=    1.000000
                            INTEGRAL OF CHARGE DENSITY=    1.000000
                           SUM OF THE ORBITAL ENERGIES=     -0.2039
                                          TOTAL ENERGY=     -0.4160
                                        KINETIC ENERGY=      0.4160
                             NUCLEAR ATTRACTION ENERGY=     -0.9108
                             ELECTRON REPULSION ENERGY=      0.2787
                                       EXCHANGE ENERGY=     -0.2000

 *******************************************************************************

                             D I R A C   E X I T
 NORMAL TERMINATION



 =================
 Timing Statistics
 =================
  
 Total Used :                     CPU=        0.08      System=        0.00     Elapsed=        0.10

 Calls  Section                     ( Mean, Percentage )
 ---------------------------------------------------------------------------------------------------
     2  ><      ................      0.00    0.00             0.00    0.00             0.00    0.01
     1  EXIT PROCEDURE .........      0.08  100.00             0.00  100.00             0.10   99.99


 Currently Open Files (EXIT00)
 ====================

 Unit    Access Format  Status   Type       Ident (file)
 -------------------------------------------------------
   3      SEQ    FORM   TRANSP  NORMAL      LOGFILE
                                          ( logfile )
 
Create H   file=TZP-H
XC
  GGA PBE
End
relativistic ZORA
Corepotentials t12.rel
End

 *******************************************************************************
 *                                                                             *
 *  -------------------------------------                                      *
 *   Amsterdam Density Functional  (ADF)         2019                          *
 *  -------------------------------------                                      *
 *                                               r74351 2019-04-25             *
 *                                                                             *
 *                                                                             *
 *                              =================                              *
 *                              |               |                              *
 *                              |     A D F     |                              *
 *                              |               |                              *
 *                              =================                              *
 *                                                                             *
 *                                                                             *
 *   Online information and documentation:  https://www.scm.com/support/       *
 *   E-mail:  support@scm.com   info@scm.com                                   *
 *                                                                             *
 *   Scientific publications using ADF results must be properly referenced     *
 *   See the User Manuals (or the web site) for recommended citations          *
 *   The terms and conditions of the End User License Agreement apply to       *
 *   the use of ADF, https://www.scm.com/license-terms/                        *
 *                                                                             *
 **********************  x86_64_linux_intel / intelmpi  ************************
 
 Licensed to: Dr. Carles Bo / Institute of Chemical Research of Catalonia ( (ICIQ) / Tarragona / Spain 2022-11-28 14:37:29
 SCM User ID: u7609
  
 ADF 2019  RunTime: Feb09-2023 21:43:12  Nodes: 1  Procs: 1

 Temporary files are created in /scratch/kid_0.1267432136

 Hydrogen (TZP)



 ===========================
 A T T A C H E D   F I L E S
 ===========================
  
 CREATE - Data File:    TZP-H
                        Hydrogen (TZP)
 Core Potentials:
         file : t12.rel



 ===============================
 M O D E L   P A R A M E T E R S
 ===============================
  
 DENSITY FUNCTIONAL POTENTIAL (scf)
    LDA:                               PW92                                    == Not Default ==
    Gradient Corrections:              PBEc PBEx                               == Not Default ==

 SPIN  (restricted / unrestr.)
    Molecule:                          Restricted                               

 OTHER ASPECTS
    Relativistic Corrections:          scalar (ZORA,MAPA)                      == Not Default ==

    Nuclear Charge Density Model:      Point Charge Nuclei                      
    Core Treatment:                    Frozen Orbital(s)                        

    Hyperfine or Zeeman Interaction:   ---                                      



 =====================================
 S Y M M E T R Y ,   E L E C T R O N S
 =====================================
  
 Symmetry: ATOM

 Irreducible Representations, including subspecies
 -------------------------------------------------
 S
 P:x  P:y  P:z
 D:z2  D:x2-y2  D:xy  D:xz  D:yz
 F:z3  F:z  F:xyz  F:z2x  F:z2y  F:x  F:y


 Configuration of Valence Electrons
 ==================================

          Occupation Numbers
          -------------------------------------------------
 S        1
 P        0
 D        0
 F        0
          -------------------------------------------------

 Total:   1

 Net Charge: 0 (Nuclei minus Electrons)

 Preset values for MO occupations will be applied through SCF cycle no. 1000000
 Thereafter, the program will assign electrons to MOs that are spatially
 similar to the occupied MOs in a "reference" cycle ("KeepOrbitals").
 The reference cycle is always the PREVIOUS cycle: it will evolve with
 the SCF procedure.



 ================================
 (Slater-type)  F U N C T I O N S  ***  (Basis and Fit)  ***
 ================================
  

 Atom Type    1  (H)
 ==============

 Valence Basis Sets:   4
 -----------------------
   1 S    0.690000
   1 S    0.920000
   1 S    1.580000
   2 P    1.250000


 BAS: List of all Elementary Cartesian Basis Functions
 =====================================================

 The numbering in the list below (to the right of the function characteristics) is referred
 to in print-outs of MO eigenvectors and Mulliken populations in the BAS representation
 (as contrasted to the SFO representation).

 Notes:
 1. The functions are characterized by a polynomial prefactor (powers of x,y,z and r) and
    an exponential decay factor alpha.
 2. Since the basis sets are specific for an atom TYPE, the individual functions occur on
    all atoms of that type.
 3. The word 'Core' in the left margin signals that it is a Core Function (CF) : not a
    degree of freedom in the valence set, but only used to ensure orthogonalization of
    the other valence basis functions on the frozen Core Orbitals.


 (power of) X  Y  Z  R     Alpha  on Atom
            ==========     =====     ==========

 H                                    1
                                  ---------------------------------------------------------------------------
            0  0  0  0     0.690      1
            0  0  0  0     0.920      2
            0  0  0  0     1.580      3
            1  0  0  0     1.250      4
            0  1  0  0     1.250      5
            0  0  1  0     1.250      6

 Total number of charge fitting functions (nprimf)        50
 Total number of Cartesian basis functions (naos)          6
 Total number of Cartesian core functions  (ncos)          0



 BAS: List of all Elementary Cartesian Basis Functions
 =====================================================

 The numbering in the list below (to the right of the function characteristics) is referred
 to in print-outs of MO eigenvectors and Mulliken populations in the BAS representation
 (as contrasted to the SFO representation).

 Notes:
 1. The functions are characterized by a polynomial prefactor (powers of x,y,z and r) and
    an exponential decay factor alpha.
 2. Since the basis sets are specific for an atom TYPE, the individual functions occur on
    all atoms of that type.
 3. The word 'Core' in the left margin signals that it is a Core Function (CF) : not a
    degree of freedom in the valence set, but only used to ensure orthogonalization of
    the other valence basis functions on the frozen Core Orbitals.


 (power of) X  Y  Z  R     Alpha  on Atom
            ==========     =====     ==========

 H                                    1
                                  ---------------------------------------------------------------------------
            0  0  0  0     0.690      1
            0  0  0  0     0.920      2
            0  0  0  0     1.580      3
            1  0  0  0     1.250      4
            0  1  0  0     1.250      5
            0  0  1  0     1.250      6
1
 ***************************************************************************************************



                                              ***********************
                                              *  T E C H N I C A L  *
                                              ***********************
  



 =============================================================
 P A R A L L E L I Z A T I O N  and  V E C T O R I Z A T I O N
 =============================================================
  
 Nr of parallel processes:                                1
 Maximum vector length in NumInt loops:                 128



 =====================
 S C F   U P D A T E S
 =====================
  
 Max. nr. of cycles:                               300
 Convergence criterion:                              0.0000000100
   secondary criterion:                              0.0000000100

 Mix parameter (when DIIS does not apply):           0.2000000000
 Special mix parameter for the first cycle:          1.0000000000
 Mixed ADIIS+SDIIS will be used                  
    Max number of expansion vectors:                10
    Pure ADIIS when Max([F,P]) is above              0.1000000000
    Pure SDIIS when Max([F,P]) is below              0.0010000000
 Automatic ElectronSmearing (in case of problematic SCF convergence) disabled



 =================
 P R E C I S I O N  ***  (General: NumInt, NeglectFunctionTails, ...)  ***
 =================
  

 NumInt:           Target precision:                12.0000000000
 -------           Initial precision:               10.0000000000
                   Min. precision (optimization):   10.0000000000

 Neglect Functions:          Basis functions:        0.1000000000E-13
 ------------------          Fit functions:          0.1000000000E-13



 ===========================
 L I N E A R   S C A L I N G
 ===========================
  

 Cut-off radii density fit:                        0.1000000000E-97
 Overlap cut-off criterion AO matrix elements:     0.1000000000E-97
 Cut-offs for Coulomb potential and fitted density:0.1000000000E-97
 Cut-off criterion for Coulomb multipole terms:    0.1000000000E-97
 Progressive Convergence parameter:                 0.000000000    
1
 ***************************************************************************************************



                                            ***************************
                                            *  C O M P U T A T I O N  *
                                            ***************************
  

 Number of elements of the density matrix on this node (used, total):        21        21



 ===========================================
 Numerical Integration : Fuzzy Cells (Becke)
 ===========================================
  
 Becke grid quality: VERYGOOD       
  
 Lebedev angular grid order:             min:  13 max:  41
 Nr. of radial points:                   min:  64 max:  64

 Total nr. of points:         64
 Nr. of blocks:                1
 Block length:                64
 Nr. of dummy points:          0


 Test of Precision of the Numerical Integration Grid
 ===================================================

 Integral of the Total Core Density:                   0.00000000000000



 ========================
 Density Fitting (zlmFit)
 ========================
  
 ZlmFit Fit Quality: VERYGOOD       
  
 Max L-expansion:                        min:   0 max:   0
 Nr. of radial interpolation points:     min: 120 max: 120



 =====
 S C F  ***  ScaSCF  ***
 =====
  

 CYCLE    1
 SCF Error: norm([F,P])=      0.000000000000, max([F,P])=      0.000000000000
 orbitals (Q,E):
 ---------------
 S :1...3            ( 1.00    -0.5000)  ( 0.00    -0.0900)  ( 0.00     1.2936)
 P :1...1            ( 0.00     0.1562)

 CYCLE    2
 SCF Error: norm([F,P])=      0.031537872292, max([F,P])=      0.030110494752
 orbitals (Q,E):
 ---------------
 S :1...2            ( 1.00    -0.2218)  ( 0.00     0.1019)
 P :1...1            ( 0.00     0.4189)

 CYCLE    3
  SDIIS (wt  0.000):  0.1996  0.8004
 A-DIIS (wt  1.000):  0.0000  1.0000
  DIIS coefficients:  0.0000  1.0000
 SCF Error: norm([F,P])=      0.008617989401, max([F,P])=      0.008343029399
 orbitals (Q,E):
 ---------------
 S :1...2            ( 1.00    -0.2422)  ( 0.00     0.0889)
 P :1...1            ( 0.00     0.4024)

 CYCLE    4
  SDIIS (wt  0.993):  0.1666  0.8334
 A-DIIS (wt  0.007):  0.0000  1.0000
  DIIS coefficients:  0.1654  0.8346
 SCF Error: norm([F,P])=      0.001732350026, max([F,P])=      0.001718616814
 orbitals (Q,E):
 ---------------
 S :1...2            ( 1.00    -0.2385)  ( 0.00     0.0908)
 P :1...1            ( 0.00     0.4054)

 CYCLE    5
  SDIIS (wt  1.000):  0.0236  0.9764
  DIIS coefficients:  0.0236  0.9764
 SCF Error: norm([F,P])=      0.000043673449, max([F,P])=      0.000039769875
 orbitals (Q,E):
 ---------------
 S :1...2            ( 1.00    -0.2386)  ( 0.00     0.0908)
 P :1...1            ( 0.00     0.4054)

 CYCLE    6
  SDIIS (wt  1.000): -0.0577  1.0577
  DIIS coefficients: -0.0577  1.0577
 SCF Error: norm([F,P])=      0.000002383805, max([F,P])=      0.000002158128
 orbitals (Q,E):
 ---------------
 S :1...2            ( 1.00    -0.2386)  ( 0.00     0.0908)
 P :1...1            ( 0.00     0.4054)

 CYCLE    7
  SDIIS (wt  1.000): -0.0032  1.0032
  DIIS coefficients: -0.0032  1.0032
 SCF Error: norm([F,P])=      0.000000007721, max([F,P])=      0.000000007228
 orbitals (Q,E):
 ---------------
 S :1...2            ( 1.00    -0.2386)  ( 0.00     0.0908)
 P :1...1            ( 0.00     0.4054)

 SCF CONVERGED

 CYCLE    8
1
 ***************************************************************************************************



                                                *******************
                                                *  R E S U L T S  *
                                                *******************
  
 *** Using FIT density in Focky
  SDIIS (wt  1.000):  0.0192  0.9808
  DIIS coefficients:  0.0192  0.9808
 SCF Error: norm([F,P])=      0.000000000151, max([F,P])=      0.000000000141

 Scaled ZORA Orbital Energies, per Irrep and Spin:
 =================================================
                        Occup              E (au)              E (eV)       Diff (eV) with prev. cycle
                        -----      --------------------        ------       --------------------------
 S
               1        1.000     -0.23861775226993E+00        -6.493               7.43E-09
               2        0.000      0.90791701709251E-01         2.471
               3        0.000      0.15217530108908E+01        41.409
 P
               1        0.000      0.40537978060393E+00        11.031


 Partially Occupied:
               1 S                -0.23861775226993E+00
  
 LUMO :        2 S                 0.90791701709251E-01
  


 Orbital Energies, all Irreps
 ========================================

 Irrep        no.  (spin)   Occup              E (au)                E (eV)
 ---------------------------------------------------------------------------
 S             1             1.00       -0.23861775226993E+00        -6.4931
 S             2             0.00        0.90791701709251E-01         2.4706
 P             1             0.00        0.40537978060393E+00        11.0309
 S             3             0.00        0.15217530108908E+01        41.4090


 All Electron Calculation, thus no Orbital Energies of the Core Orbitals are calculated



 =======================================
 M U L L I K E N   P O P U L A T I O N S
 =======================================
  
 The survey below gives for each atom:
 a) the total charge (Z minus electrons)
 b) the net spin polarization (nr of electrons spin-A minus spin-B)
 c) for each spin the atomic electron valence density (integrated) per L-value.

 Atom              Charge    Spin density          S         P         D         F
 ----              ------    ------------       ------    ------    ------    ------
 1 H              -0.0000                       1.0000    0.0000    0.0000    0.0000

 Populations of individual BAS functions
 ----------------------------------------
 1 H            0.2104  0.6788  0.1107  0.0000  0.0000  0.0000

 Gross Charges per Atom (Z minus electrons)
 ==========================================
            -0.0000
 Net Total: -0.00000000



 =======================================================================
 Electrostatic potential at the Nuclei due to electrons and other nuclei
 =======================================================================
  
         Atom                  Potential
         ----                  ---------
     1)   H                   0.94468022
 
 
 ========================
 No memory problems found
 ========================
 
 Maximum number of active allocate calls:         306
 
 *******************************************************************************

                             A D F   E X I T
 NORMAL TERMINATION



 =================
 Timing Statistics
 =================
  
 Total Used :                     CPU=        0.35      System=        0.02     Elapsed=        0.42

 Calls  Section                     ( Mean, Percentage )
 ---------------------------------------------------------------------------------------------------
     3  ><      ................      0.00    1.15             0.00    0.00             0.00    1.10
     1  INIT    ................      0.07   19.54             0.00   16.67             0.09   21.65
     1  GEOMET  ................      0.02    5.75             0.00    0.00             0.03    6.49
     1  INPUTA  ................      0.00    1.15             0.00    0.00             0.00    0.85
     1  MAINSY  ................      0.01    2.30             0.00   16.67             0.01    3.25
     1  SYMFIT  ................      0.00    0.00             0.00    0.00             0.00    0.40
     1  CORORT  ................      0.00    0.00             0.00    0.00             0.00    0.31
     1  SYMORB  ................      0.00    0.00             0.00    0.00             0.00    0.18
     1  CLSMAT  ................      0.00    1.15             0.00   16.67             0.01    1.28
     1  ORTHON  ................      0.00    1.15             0.00    0.00             0.01    1.21
     1  GENPT   ................      0.01    3.45             0.00    0.00             0.01    3.10
     1  PTBAS   ................      0.00    1.15             0.00    0.00             0.00    1.14
     8  FOCKY   ................      0.02   48.27             0.00   33.33             0.02   44.20
     8  FOCKTR  ................      0.00    1.15             0.00    0.00             0.00    0.95
     8  SDIIS   ................      0.00    5.75             0.00    0.00             0.00    5.50
     1  COREPS  ................      0.01    3.45             0.00   16.67             0.02    3.62
     1  POPAN   ................      0.00    1.15             0.00    0.00             0.00    1.10
     1  DEBYE   ................      0.00    0.00             0.00    0.00             0.00    0.47
     1  EXIT PROCEDURE .........      0.01    3.45             0.00    0.00             0.01    3.22


 Currently Open Files (EXIT00)
 ====================

 Unit    Access Format  Status   Type       Ident (file)
 -------------------------------------------------------
   3      SEQ    FORM   TRANSP  NORMAL      LOGFILE
                                          ( logfile )

 ***************************************************************************************************
 (LOGFILE)
 <Feb09-2023> <21:43:11>  DIRAC 2019  RunTime: Feb09-2023 21:43:11  Nodes: 1  Procs: 1
 <Feb09-2023> <21:43:12>  NORMAL TERMINATION
 <Feb09-2023> <21:43:12>  END
 <Feb09-2023> <21:43:12>  ADF 2019  RunTime: Feb09-2023 21:43:12  Nodes: 1  Procs: 1
 <Feb09-2023> <21:43:12>  Hydrogen (TZP)
 <Feb09-2023> <21:43:12>  RunType   : CREATE
 <Feb09-2023> <21:43:12>  Net Charge: 0 (Nuclei minus Electrons)
 <Feb09-2023> <21:43:12>  Symmetry  : ATOM
  Coordinates
    Atom         X           Y           Z   (Angstrom)
    1.H         0.000000    0.000000    0.000000
 <Feb09-2023> <21:43:12>  >>>> CORORT
 <Feb09-2023> <21:43:12>  >>>> CLSMAT
 <Feb09-2023> <21:43:12>  >>>> ORTHON
 <Feb09-2023> <21:43:12>  >>>> GENPT
 <Feb09-2023> <21:43:12>  Block Length=  64
 <Feb09-2023> <21:43:12>  >>>> PTBAS
 <Feb09-2023> <21:43:12>  >>>> CYCLE
 <Feb09-2023> <21:43:12>              |Error|         MaxErr       Wt(A-DIIS)
 <Feb09-2023> <21:43:12>      1      0.00000000      0.00000000
 <Feb09-2023> <21:43:12>      2      0.03153787      0.03011049
 <Feb09-2023> <21:43:12>      3      0.00861799      0.00834303    100.0
 <Feb09-2023> <21:43:12>      4      0.00173235      0.00171862      0.7
 <Feb09-2023> <21:43:12>      5      0.00004367      0.00003977      0.0
 <Feb09-2023> <21:43:12>      6      0.00000238      0.00000216      0.0
 <Feb09-2023> <21:43:12>      7      0.00000001      0.00000001      0.0
 <Feb09-2023> <21:43:12>  SCF converged
 <Feb09-2023> <21:43:12>      8      0.00000000      0.00000000      0.0
 <Feb09-2023> <21:43:12>  >>>> POPAN
 <Feb09-2023> <21:43:12>  >>>> DEBYE
 <Feb09-2023> <21:43:12>  NORMAL TERMINATION
 <Feb09-2023> <21:43:12>  END

 *******************************************************************************
 *                                                                             *
 *  -------------------------------------                                      *
 *   Amsterdam Density Functional  (ADF)         2019                          *
 *  -------------------------------------                                      *
 *                                               r74351 2019-04-25             *
 *                                                                             *
 *                                                                             *
 *                            =====================                            *
 *                            |                   |                            *
 *                            |     D I R A C     |                            *
 *                            |                   |                            *
 *                            =====================                            *
 *                                                                             *
 *                                                                             *
 *   Online information and documentation:  https://www.scm.com/support/       *
 *   E-mail:  support@scm.com   info@scm.com                                   *
 *                                                                             *
 *   Scientific publications using ADF results must be properly referenced     *
 *   See the User Manuals (or the web site) for recommended citations          *
 *   The terms and conditions of the End User License Agreement apply to       *
 *   the use of ADF, https://www.scm.com/license-terms/                        *
 *                                                                             *
 **********************  x86_64_linux_intel / intelmpi  ************************
 
 Licensed to: Dr. Carles Bo / Institute of Chemical Research of Catalonia ( (ICIQ) / Tarragona / Spain 2022-11-28 14:37:29
 SCM User ID: u7609
  
 DIRAC 2019  RunTime: Feb09-2023 21:43:12  Nodes: 1  Procs: 1

 Temporary files are created in /scratch/kid_0.791213184

1
 PHOSPHORUS ATOM 1s CORE RELATIVISTIC, Point Nuc, A and c fro
 N J RN H ZN XION ANUC CLIGHT
 5000    7100.00000000197.36710137 15.00000000  0.00000000   30.973761  0.1370360E+03
  PH   PHI     EPS        DEL        DELRVR
  0.30  0.30     2500.00  0.00001000  0.00001000
 IDIRC  NC1  NDEBU NPRIN  IPUN IRCOR IWCOR
   1   300     0     0     0     0     1
   XALPHA      XLATTER      RNUC
  0.70000000  0.00000000  0.00000000 Point Charge
   XN   XL   XJ      XE          XZ      XDELL
  1.0  0.0  0.5    -600.000       2.000     0.00000
  2.0  0.0  0.5     -75.000       2.000     0.00000
  2.0  1.0  0.5     -70.000       2.000     0.00000
  2.0  1.0  1.5     -70.000       4.000     0.00000
  3.0  0.0  0.5     -25.000       2.000     0.00000
  3.0  1.0  0.5      -0.250       2.000     0.00000
  3.0  1.0  1.5      -0.250       1.000     0.00000
 ICORP=  0  NPCL=  0  DEMP=0.00  PEPS=0.000000
 R(1)=  0.1000000E-08 D=  0.1005080E+01 RNUC=  0.0000000E+00
 converged at cycle   47  DENSITY AVERAGING    0.3000
  MAXIMUM ERROR IN R.V(R) IS   0.93255186E-05
 Q,EY,EV,EZ,ESUM,ETOT,RHO  0.150000E+02 -0.290161E+02 -0.536820E+03 -0.814855E+03 -0.194417E+03 -0.340688E+03  0.340722E-13


 DIRAC CALCULATION
1                    PHOSPHORUS ATOM 1s CORE RELATIVISTIC, Point Nuc, A and c from libtc


 EXCHANGE COEFFICIENT=  0.7000000           TAIL CORRECTION=  0.           NUCLEAR RADIUS=  0.000E+00
0                       ORBITAL    N    L    J     ELECTRONS     EIGENVALUE                DELTA OF EIGENV.

                          1S1/2  1.0  0.0  0.5     2.000       -0.7640874E+02                 0.2597240E-06
                          2S1/2  2.0  0.0  0.5     2.000       -0.6353640E+01                 0.3482713E-07
                          2P1/2  2.0  1.0  0.5     2.000       -0.4588256E+01                 0.3010938E-07
                          2P3/2  2.0  1.0  1.5     4.000       -0.4554413E+01                 0.2993762E-07
                          3S1/2  3.0  0.0  0.5     2.000       -0.4844206E+00                 0.1693624E-07
                          3P1/2  3.0  1.0  0.5     2.000       -0.1770291E+00                 0.1234259E-07
                          3P3/2  3.0  1.0  1.5     1.000       -0.1750217E+00                 0.1224459E-07


                                        NUCLEAR CHARGE=   15.000000
                            INTEGRAL OF CHARGE DENSITY=   15.000000
                           SUM OF THE ORBITAL ENERGIES=   -194.4169
                                          TOTAL ENERGY=   -340.6884
                                        KINETIC ENERGY=    342.4034
                             NUCLEAR ATTRACTION ENERGY=   -814.8554
                             ELECTRON REPULSION ENERGY=    153.5256
                                       EXCHANGE ENERGY=    -21.7621

 *******************************************************************************

                             D I R A C   E X I T
 NORMAL TERMINATION



 =================
 Timing Statistics
 =================
  
 Total Used :                     CPU=        0.27      System=        0.00     Elapsed=        0.29

 Calls  Section                     ( Mean, Percentage )
 ---------------------------------------------------------------------------------------------------
     2  ><      ................      0.00    0.00             0.00    0.00             0.00    0.00
     1  EXIT PROCEDURE .........      0.27  100.00             0.00  100.00             0.29  100.00


 Currently Open Files (EXIT00)
 ====================

 Unit    Access Format  Status   Type       Ident (file)
 -------------------------------------------------------
   3      SEQ    FORM   TRANSP  NORMAL      LOGFILE
                                          ( logfile )
 
Create P   file=TZP-P.1s
XC
  GGA PBE
End
relativistic ZORA
Corepotentials t12.rel
End

 *******************************************************************************
 *                                                                             *
 *  -------------------------------------                                      *
 *   Amsterdam Density Functional  (ADF)         2019                          *
 *  -------------------------------------                                      *
 *                                               r74351 2019-04-25             *
 *                                                                             *
 *                                                                             *
 *                              =================                              *
 *                              |               |                              *
 *                              |     A D F     |                              *
 *                              |               |                              *
 *                              =================                              *
 *                                                                             *
 *                                                                             *
 *   Online information and documentation:  https://www.scm.com/support/       *
 *   E-mail:  support@scm.com   info@scm.com                                   *
 *                                                                             *
 *   Scientific publications using ADF results must be properly referenced     *
 *   See the User Manuals (or the web site) for recommended citations          *
 *   The terms and conditions of the End User License Agreement apply to       *
 *   the use of ADF, https://www.scm.com/license-terms/                        *
 *                                                                             *
 **********************  x86_64_linux_intel / intelmpi  ************************
 
 Licensed to: Dr. Carles Bo / Institute of Chemical Research of Catalonia ( (ICIQ) / Tarragona / Spain 2022-11-28 14:37:29
 SCM User ID: u7609
  
 ADF 2019  RunTime: Feb09-2023 21:43:13  Nodes: 1  Procs: 1

 Temporary files are created in /scratch/kid_0.950088200

 Phosphorus (TZP, 1s frozen)



 ===========================
 A T T A C H E D   F I L E S
 ===========================
  
 CREATE - Data File:    TZP-P.1s
                        Phosphorus (TZP, 1s frozen)
 Core Potentials:
         file : t12.rel



 ===============================
 M O D E L   P A R A M E T E R S
 ===============================
  
 DENSITY FUNCTIONAL POTENTIAL (scf)
    LDA:                               PW92                                    == Not Default ==
    Gradient Corrections:              PBEc PBEx                               == Not Default ==

 SPIN  (restricted / unrestr.)
    Molecule:                          Restricted                               

 OTHER ASPECTS
    Relativistic Corrections:          scalar (ZORA,MAPA)                      == Not Default ==

    Nuclear Charge Density Model:      Point Charge Nuclei                      
    Core Treatment:                    Frozen Orbital(s)                        

    Hyperfine or Zeeman Interaction:   ---                                      



 =====================================
 S Y M M E T R Y ,   E L E C T R O N S
 =====================================
  
 Symmetry: ATOM

 Irreducible Representations, including subspecies
 -------------------------------------------------
 S
 P:x  P:y  P:z
 D:z2  D:x2-y2  D:xy  D:xz  D:yz
 F:z3  F:z  F:xyz  F:z2x  F:z2y  F:x  F:y


 Configuration of Valence Electrons
 ==================================

          Occupation Numbers
          -------------------------------------------------
 S        2*2
 P        6 3
 D        0
 F        0
          -------------------------------------------------

 Total:   13

 Net Charge: 0 (Nuclei minus Electrons)

 Preset values for MO occupations will be applied through SCF cycle no. 1000000
 Thereafter, the program will assign electrons to MOs that are spatially
 similar to the occupied MOs in a "reference" cycle ("KeepOrbitals").
 The reference cycle is always the PREVIOUS cycle: it will evolve with
 the SCF procedure.



 ================================
 (Slater-type)  F U N C T I O N S  ***  (Basis and Fit)  ***
 ================================
  

 Atom Type    1  (P)
 ==============

 Valence Basis Sets:  12
 -----------------------
   1 S   12.550000
   2 S    5.600000
   2 S    4.050000
   2 P    7.450000
   2 P    4.100000
   3 S    1.300000
   3 S    1.850000
   3 S    2.650000
   3 P    0.850000
   3 P    1.300000
   3 P    2.050000
   3 D    1.900000

 Frozen Core Shells
 ------------------
    S:  1


 BAS: List of all Elementary Cartesian Basis Functions
 =====================================================

 The numbering in the list below (to the right of the function characteristics) is referred
 to in print-outs of MO eigenvectors and Mulliken populations in the BAS representation
 (as contrasted to the SFO representation).

 Notes:
 1. The functions are characterized by a polynomial prefactor (powers of x,y,z and r) and
    an exponential decay factor alpha.
 2. Since the basis sets are specific for an atom TYPE, the individual functions occur on
    all atoms of that type.
 3. The word 'Core' in the left margin signals that it is a Core Function (CF) : not a
    degree of freedom in the valence set, but only used to ensure orthogonalization of
    the other valence basis functions on the frozen Core Orbitals.


 (power of) X  Y  Z  R     Alpha  on Atom
            ==========     =====     ==========

 P                                    1
                                  ---------------------------------------------------------------------------
    Core    0  0  0  0    12.550      1
            0  0  0  1     5.600      2
            0  0  0  1     4.050      3
            1  0  0  0     7.450      4
            0  1  0  0     7.450      5
            0  0  1  0     7.450      6
            1  0  0  0     4.100      7
            0  1  0  0     4.100      8
            0  0  1  0     4.100      9
            0  0  0  2     1.300     10
            0  0  0  2     1.850     11
            0  0  0  2     2.650     12
            1  0  0  1     0.850     13
            0  1  0  1     0.850     14
            0  0  1  1     0.850     15
            1  0  0  1     1.300     16
            0  1  0  1     1.300     17
            0  0  1  1     1.300     18
            1  0  0  1     2.050     19
            0  1  0  1     2.050     20
            0  0  1  1     2.050     21
            2  0  0  0     1.900     22
            1  1  0  0     1.900     23
            1  0  1  0     1.900     24
            0  2  0  0     1.900     25
            0  1  1  0     1.900     26
            0  0  2  0     1.900     27

 Total number of charge fitting functions (nprimf)       106
 Total number of Cartesian basis functions (naos)         27
 Total number of Cartesian core functions  (ncos)          1



 BAS: List of all Elementary Cartesian Basis Functions
 =====================================================

 The numbering in the list below (to the right of the function characteristics) is referred
 to in print-outs of MO eigenvectors and Mulliken populations in the BAS representation
 (as contrasted to the SFO representation).

 Notes:
 1. The functions are characterized by a polynomial prefactor (powers of x,y,z and r) and
    an exponential decay factor alpha.
 2. Since the basis sets are specific for an atom TYPE, the individual functions occur on
    all atoms of that type.
 3. The word 'Core' in the left margin signals that it is a Core Function (CF) : not a
    degree of freedom in the valence set, but only used to ensure orthogonalization of
    the other valence basis functions on the frozen Core Orbitals.


 (power of) X  Y  Z  R     Alpha  on Atom
            ==========     =====     ==========

 P                                    1
                                  ---------------------------------------------------------------------------
    Core    0  0  0  0    12.550      1
            0  0  0  1     5.600      2
            0  0  0  1     4.050      3
            1  0  0  0     7.450      4
            0  1  0  0     7.450      5
            0  0  1  0     7.450      6
            1  0  0  0     4.100      7
            0  1  0  0     4.100      8
            0  0  1  0     4.100      9
            0  0  0  2     1.300     10
            0  0  0  2     1.850     11
            0  0  0  2     2.650     12
            1  0  0  1     0.850     13
            0  1  0  1     0.850     14
            0  0  1  1     0.850     15
            1  0  0  1     1.300     16
            0  1  0  1     1.300     17
            0  0  1  1     1.300     18
            1  0  0  1     2.050     19
            0  1  0  1     2.050     20
            0  0  1  1     2.050     21
            2  0  0  0     1.900     22
            1  1  0  0     1.900     23
            1  0  1  0     1.900     24
            0  2  0  0     1.900     25
            0  1  1  0     1.900     26
            0  0  2  0     1.900     27
1
 ***************************************************************************************************



                                              ***********************
                                              *  T E C H N I C A L  *
                                              ***********************
  



 =============================================================
 P A R A L L E L I Z A T I O N  and  V E C T O R I Z A T I O N
 =============================================================
  
 Nr of parallel processes:                                1
 Maximum vector length in NumInt loops:                 128



 =====================
 S C F   U P D A T E S
 =====================
  
 Max. nr. of cycles:                               300
 Convergence criterion:                              0.0000000100
   secondary criterion:                              0.0000000100

 Mix parameter (when DIIS does not apply):           0.2000000000
 Special mix parameter for the first cycle:          1.0000000000
 Mixed ADIIS+SDIIS will be used                  
    Max number of expansion vectors:                10
    Pure ADIIS when Max([F,P]) is above              0.1000000000
    Pure SDIIS when Max([F,P]) is below              0.0010000000
 Automatic ElectronSmearing (in case of problematic SCF convergence) disabled



 =================
 P R E C I S I O N  ***  (General: NumInt, NeglectFunctionTails, ...)  ***
 =================
  

 NumInt:           Target precision:                12.0000000000
 -------           Initial precision:               10.0000000000
                   Min. precision (optimization):   10.0000000000

 Neglect Functions:          Basis functions:        0.1000000000E-13
 ------------------          Fit functions:          0.1000000000E-13



 ===========================
 L I N E A R   S C A L I N G
 ===========================
  

 Cut-off radii density fit:                        0.1000000000E-97
 Overlap cut-off criterion AO matrix elements:     0.1000000000E-97
 Cut-offs for Coulomb potential and fitted density:0.1000000000E-97
 Cut-off criterion for Coulomb multipole terms:    0.1000000000E-97
 Progressive Convergence parameter:                 0.000000000    
1
 ***************************************************************************************************



                                            ***************************
                                            *  C O M P U T A T I O N  *
                                            ***************************
  

 Number of elements of the density matrix on this node (used, total):       378       378



 ===========================================
 Numerical Integration : Fuzzy Cells (Becke)
 ===========================================
  
 Becke grid quality: VERYGOOD       
  
 Lebedev angular grid order:             min:  13 max:  41
 Nr. of radial points:                   min:  76 max:  76

 Total nr. of points:         76
 Nr. of blocks:                1
 Block length:                76
 Nr. of dummy points:          0


 Test of Precision of the Numerical Integration Grid
 ===================================================

 Integral of the Total Core Density:                   1.99999999908170
 Relative Error:                                      -4.592E-10



 ========================
 Density Fitting (zlmFit)
 ========================
  
 ZlmFit Fit Quality: VERYGOOD       
  
 Max L-expansion:                        min:   0 max:   0
 Nr. of radial interpolation points:     min: 190 max: 190



 =====
 S C F  ***  ScaSCF  ***
 =====
  

 CYCLE    1
 SCF Error: norm([F,P])=      0.000000000000, max([F,P])=      0.000000000000
 orbitals (Q,E):
 ---------------
 S :1...5            ( 2.00   -23.0992)  ( 2.00    -9.8031)  ( 0.00    -5.2886)  ( 0.00    -3.1440)
                     ( 0.00    -1.2993)
 P :1...5            ( 6.00   -22.3278)  ( 3.00    -9.2322)  ( 0.00    -4.8937)  ( 0.00    -3.0142)
                     ( 0.00    -1.9614)
 D :1...1            ( 0.00    -6.4318)

 CYCLE    2
  SDIIS (wt  0.000):  1.0000  0.0000
 A-DIIS (wt  1.000):  0.1145  0.8855
  DIIS coefficients:  0.1145  0.8855
 SCF Error: norm([F,P])=     18.574199763001, max([F,P])=      5.729460424591
 orbitals (Q,E):
 ---------------
 S :1...3            ( 2.00    -4.5689)  ( 2.00    -0.5693)  ( 0.00    -0.0589)
 P :1...3            ( 6.00    -2.5820)  ( 3.00    -0.3376)  ( 0.00    -0.0879)
 D :1...1            ( 0.00     0.3219)

 CYCLE    3
  SDIIS (wt  0.000):  0.2387  0.7613
 A-DIIS (wt  1.000):  0.0000  1.0000
  DIIS coefficients:  0.0000  1.0000
 SCF Error: norm([F,P])=      7.892246338364, max([F,P])=      2.592954182835
 orbitals (Q,E):
 ---------------
 S :1...3            ( 2.00    -8.2146)  ( 2.00    -0.9843)  ( 0.00    -0.0433)
 P :1...3            ( 6.00    -6.5635)  ( 3.00    -0.6019)  ( 0.00    -0.0049)
 D :1...1            ( 0.00    -0.0107)

 CYCLE    4
  SDIIS (wt  0.000): -0.0871  0.2952  0.7919
 A-DIIS (wt  1.000):  0.0000  0.1757  0.8243
  DIIS coefficients:  0.0000  0.1757  0.8243
 SCF Error: norm([F,P])=      4.387176641077, max([F,P])=      1.761626650861
 orbitals (Q,E):
 ---------------
 S :1...3            ( 2.00    -5.8126)  ( 2.00    -0.3504)  ( 0.00     0.1791)
 P :1...3            ( 6.00    -3.9508)  ( 3.00    -0.0835)  ( 0.00     0.1310)
 D :1...1            ( 0.00     0.5508)

 CYCLE    5
  SDIIS (wt  0.000): -0.0109 -0.0602  0.1941  0.8770
 A-DIIS (wt  1.000):  0.0000  0.0000  0.0000  1.0000
  DIIS coefficients:  0.0000  0.0000  0.0000  1.0000
 SCF Error: norm([F,P])=      1.324345584458, max([F,P])=      0.466956153840
 orbitals (Q,E):
 ---------------
 S :1...3            ( 2.00    -6.8907)  ( 2.00    -0.7073)  ( 0.00     0.0342)
 P :1...3            ( 6.00    -5.0922)  ( 3.00    -0.3650)  ( 0.00     0.0330)
 D :1...1            ( 0.00     0.1959)

 CYCLE    6
  SDIIS (wt  0.000):  0.0000 -0.0289 -0.0346  0.4584  0.6050
 A-DIIS (wt  1.000):  0.0000  0.0000  0.0000  0.3111  0.6889
  DIIS coefficients:  0.0000  0.0000  0.0000  0.3111  0.6889
 SCF Error: norm([F,P])=      0.894656609953, max([F,P])=      0.328552344502
 orbitals (Q,E):
 ---------------
 S :1...3            ( 2.00    -6.3109)  ( 2.00    -0.4896)  ( 0.00     0.1210)
 P :1...3            ( 6.00    -4.4823)  ( 3.00    -0.1842)  ( 0.00     0.0870)
 D :1...1            ( 0.00     0.4072)

 CYCLE    7
  SDIIS (wt  0.437):  0.0003 -0.0004 -0.0106 -0.0415  0.1385  0.9137
 A-DIIS (wt  0.563):  0.0000  0.0000  0.0000  0.0000  0.0000  1.0000
  DIIS coefficients:  0.0001 -0.0002 -0.0046 -0.0181  0.0605  0.9623
 SCF Error: norm([F,P])=      0.152753231532, max([F,P])=      0.056768903175
 orbitals (Q,E):
 ---------------
 S :1...3            ( 2.00    -6.4268)  ( 2.00    -0.5264)  ( 0.00     0.1084)
 P :1...3            ( 6.00    -4.6039)  ( 3.00    -0.2126)  ( 0.00     0.0772)
 D :1...1            ( 0.00     0.3702)

 CYCLE    8
  SDIIS (wt  0.777): -0.0000 -0.0007  0.0025  0.0136 -0.0400  0.1180  0.9067
 A-DIIS (wt  0.223):  0.0000  0.0000  0.0000  0.0000  0.0000  0.0410  0.9590
  DIIS coefficients: -0.0000 -0.0005  0.0019  0.0105 -0.0311  0.1008  0.9184
 SCF Error: norm([F,P])=      0.062117061218, max([F,P])=      0.023065151090
 orbitals (Q,E):
 ---------------
 S :1...3            ( 2.00    -6.3871)  ( 2.00    -0.5116)  ( 0.00     0.1144)
 P :1...3            ( 6.00    -4.5623)  ( 3.00    -0.2008)  ( 0.00     0.0809)
 D :1...1            ( 0.00     0.3849)

 CYCLE    9
  SDIIS (wt  0.976):  0.0000  0.0000 -0.0001 -0.0000 -0.0006  0.0067  0.1535  0.8406
 A-DIIS (wt  0.024):  0.0000  0.0000  0.0000  0.0000  0.0000  0.0000  0.0000  1.0000
  DIIS coefficients:  0.0000  0.0000 -0.0001 -0.0000 -0.0006  0.0065  0.1498  0.8445
 SCF Error: norm([F,P])=      0.008957667695, max([F,P])=      0.003406470825
 orbitals (Q,E):
 ---------------
 S :1...3            ( 2.00    -6.3923)  ( 2.00    -0.5136)  ( 0.00     0.1136)
 P :1...3            ( 6.00    -4.5677)  ( 3.00    -0.2024)  ( 0.00     0.0804)
 D :1...1            ( 0.00     0.3830)

 CYCLE   10
  SDIIS (wt  1.000): -0.0000  0.0000 -0.0000 -0.0000  0.0000  0.0002  0.0031  0.0372  0.9595
  DIIS coefficients: -0.0000  0.0000 -0.0000 -0.0000  0.0000  0.0002  0.0031  0.0372  0.9595
 SCF Error: norm([F,P])=      0.000163653333, max([F,P])=      0.000063717608
 orbitals (Q,E):
 ---------------
 S :1...3            ( 2.00    -6.3922)  ( 2.00    -0.5136)  ( 0.00     0.1136)
 P :1...3            ( 6.00    -4.5676)  ( 3.00    -0.2024)  ( 0.00     0.0804)
 D :1...1            ( 0.00     0.3830)

 CYCLE   11
  SDIIS (wt  1.000):  0.0000  0.0000 -0.0000 -0.0002 -0.0016 -0.0226  1.0244
  DIIS coefficients:  0.0000  0.0000 -0.0000 -0.0002 -0.0016 -0.0226  1.0244
 SCF Error: norm([F,P])=      0.000000175567, max([F,P])=      0.000000090743
 orbitals (Q,E):
 ---------------
 S :1...3            ( 2.00    -6.3922)  ( 2.00    -0.5136)  ( 0.00     0.1136)
 P :1...3            ( 6.00    -4.5676)  ( 3.00    -0.2024)  ( 0.00     0.0804)
 D :1...1            ( 0.00     0.3830)

 CYCLE   12
  SDIIS (wt  1.000): -0.0000 -0.0000 -0.0005 -0.0247  1.0252
  DIIS coefficients: -0.0000 -0.0000 -0.0005 -0.0247  1.0252
 SCF Error: norm([F,P])=      0.000000002285, max([F,P])=      0.000000001028
 orbitals (Q,E):
 ---------------
 S :1...3            ( 2.00    -6.3922)  ( 2.00    -0.5136)  ( 0.00     0.1136)
 P :1...3            ( 6.00    -4.5676)  ( 3.00    -0.2024)  ( 0.00     0.0804)
 D :1...1            ( 0.00     0.3830)

 SCF CONVERGED

 CYCLE   13
1
 ***************************************************************************************************



                                                *******************
                                                *  R E S U L T S  *
                                                *******************
  
 *** Using FIT density in Focky
  SDIIS (wt  1.000):  0.0000  0.0017  0.0326  0.9657
  DIIS coefficients:  0.0000  0.0017  0.0326  0.9657
 SCF Error: norm([F,P])=      0.000000000342, max([F,P])=      0.000000000172

 Scaled ZORA Orbital Energies, per Irrep and Spin:
 =================================================
                        Occup              E (au)              E (eV)       Diff (eV) with prev. cycle
                        -----      --------------------        ------       --------------------------
 S
               1        2.000     -0.63922369009056E+01      -173.942               8.75E-09
               2        2.000     -0.51357095789531E+00       -13.975               6.90E-09
               3        0.000      0.11360419341918E+00         3.091
               4        0.000      0.13218598554508E+01        35.970
               5        0.000      0.10430275582036E+02       283.822
 P
               1        6.000     -0.45676340295409E+01      -124.292               8.74E-09
               2        3.000     -0.20235270966723E+00        -5.506               5.88E-09
               3        0.000      0.80400995303665E-01         2.188
               4        0.000      0.71612464912880E+00        19.487
               5        0.000      0.95392466931961E+01       259.576
 D
               1        0.000      0.38299165710671E+00        10.422


 Partially Occupied:
               2 P                -0.20235270966723E+00
  
 HOMO :        2 S                -0.51357095789531E+00
 LUMO :        3 P                 0.80400995303665E-01
  


 Orbital Energies, all Irreps
 ========================================

 Irrep        no.  (spin)   Occup              E (au)                E (eV)
 ---------------------------------------------------------------------------
 S             1             2.00       -0.63922369009056E+01      -173.9416
 P             1             6.00       -0.45676340295409E+01      -124.2916
 S             2             2.00       -0.51357095789531E+00       -13.9750
 P             2             3.00       -0.20235270966723E+00        -5.5063
 P             3             0.00        0.80400995303665E-01         2.1878
 S             3             0.00        0.11360419341918E+00         3.0913
 D             1             0.00        0.38299165710671E+00        10.4217
 P             4             0.00        0.71612464912880E+00        19.4867
 S             4             0.00        0.13218598554508E+01        35.9696
 P             5             0.00        0.95392466931961E+01       259.5761
 S             5             0.00        0.10430275582036E+02       283.8222


 Scaled ZORA Orbital Energies of the Core Orbitals:
 ==================================================

 (Note that the atoms are grouped by atomtype, see the labels, and may hence NOT be in input order)

 AtomType  Orbital  Atom                   E (au)                        E (eV)
 --------  -------  ----           --------------------        ----------------
 P           1S        1          -0.76588588395026E+02               -2084.082



 =======================================
 M U L L I K E N   P O P U L A T I O N S
 =======================================
  
 The survey below gives for each atom:
 a) the total charge (Z minus electrons)
 b) the net spin polarization (nr of electrons spin-A minus spin-B)
 c) for each spin the atomic electron valence density (integrated) per L-value.

 Atom              Charge    Spin density          S         P         D         F
 ----              ------    ------------       ------    ------    ------    ------
 1 P              -0.0000                       4.0000    9.0000    0.0000    0.0000

 Populations of individual BAS functions
 ----------------------------------------
 1 P           -0.0481  1.4990  0.5077  0.7973  0.7973  0.7973  1.2052  1.2052  1.2052  0.3372
                1.0986  0.6057  0.1369  0.1369  0.1369  0.4144  0.4144  0.4144  0.4462  0.4462
                0.4462  0.0000  0.0000  0.0000  0.0000  0.0000  0.0000

 Gross Charges per Atom (Z minus electrons)
 ==========================================
            -0.0000
 Net Total: -0.00000000



 =======================================================================
 Electrostatic potential at the Nuclei due to electrons and other nuclei
 =======================================================================
  
         Atom                  Potential
         ----                  ---------
     1)   P                  54.30955117
 
 
 ========================
 No memory problems found
 ========================
 
 Maximum number of active allocate calls:         389
 
 *******************************************************************************

                             A D F   E X I T
 NORMAL TERMINATION



 =================
 Timing Statistics
 =================
  
 Total Used :                     CPU=        0.60      System=        0.03     Elapsed=        0.66

 Calls  Section                     ( Mean, Percentage )
 ---------------------------------------------------------------------------------------------------
     3  ><      ................      0.00    0.67             0.00    0.00             0.00    0.72
     1  INIT    ................      0.07   11.41             0.00   14.29             0.08   11.81
     1  GEOMET  ................      0.01    2.01             0.01   28.57             0.03    3.91
     1  INPUTA  ................      0.00    0.67             0.00    0.00             0.00    0.54
     1  MAINSY  ................      0.01    1.34             0.00   14.28             0.02    2.30
     1  SYMFIT  ................      0.00    0.00             0.00    0.00             0.00    0.26
     1  CORORT  ................      0.00    0.00             0.00    0.00             0.00    0.24
     1  SYMORB  ................      0.00    0.67             0.00    0.00             0.00    0.13
     1  CLSMAT  ................      0.00    0.67             0.00    0.00             0.01    0.88
     1  ORTHON  ................      0.00    0.67             0.00    0.00             0.01    0.87
     1  GENPT   ................      0.02    3.36             0.00    0.00             0.02    2.90
     1  PTBAS   ................      0.00    0.67             0.00    0.00             0.01    0.80
    13  FOCKY   ................      0.03   65.10             0.00   14.29             0.03   60.54
    13  FOCKTR  ................      0.00    1.34             0.00    0.00             0.00    1.17
    13  SDIIS   ................      0.00    5.37             0.00    0.00             0.00    5.86
     1  COREPS  ................      0.02    2.68             0.01   28.57             0.02    3.76
     1  POPAN   ................      0.00    0.67             0.00    0.00             0.01    0.79
     1  DEBYE   ................      0.00    0.00             0.00    0.00             0.00    0.31
     1  EXIT PROCEDURE .........      0.02    2.68             0.00    0.00             0.01    2.22


 Currently Open Files (EXIT00)
 ====================

 Unit    Access Format  Status   Type       Ident (file)
 -------------------------------------------------------
   3      SEQ    FORM   TRANSP  NORMAL      LOGFILE
                                          ( logfile )

 ***************************************************************************************************
 (LOGFILE)
 <Feb09-2023> <21:43:11>  DIRAC 2019  RunTime: Feb09-2023 21:43:11  Nodes: 1  Procs: 1
 <Feb09-2023> <21:43:12>  NORMAL TERMINATION
 <Feb09-2023> <21:43:12>  END
 <Feb09-2023> <21:43:12>  ADF 2019  RunTime: Feb09-2023 21:43:12  Nodes: 1  Procs: 1
 <Feb09-2023> <21:43:12>  Hydrogen (TZP)
 <Feb09-2023> <21:43:12>  RunType   : CREATE
 <Feb09-2023> <21:43:12>  Net Charge: 0 (Nuclei minus Electrons)
 <Feb09-2023> <21:43:12>  Symmetry  : ATOM
  Coordinates
    Atom         X           Y           Z   (Angstrom)
    1.H         0.000000    0.000000    0.000000
 <Feb09-2023> <21:43:12>  >>>> CORORT
 <Feb09-2023> <21:43:12>  >>>> CLSMAT
 <Feb09-2023> <21:43:12>  >>>> ORTHON
 <Feb09-2023> <21:43:12>  >>>> GENPT
 <Feb09-2023> <21:43:12>  Block Length=  64
 <Feb09-2023> <21:43:12>  >>>> PTBAS
 <Feb09-2023> <21:43:12>  >>>> CYCLE
 <Feb09-2023> <21:43:12>              |Error|         MaxErr       Wt(A-DIIS)
 <Feb09-2023> <21:43:12>      1      0.00000000      0.00000000
 <Feb09-2023> <21:43:12>      2      0.03153787      0.03011049
 <Feb09-2023> <21:43:12>      3      0.00861799      0.00834303    100.0
 <Feb09-2023> <21:43:12>      4      0.00173235      0.00171862      0.7
 <Feb09-2023> <21:43:12>      5      0.00004367      0.00003977      0.0
 <Feb09-2023> <21:43:12>      6      0.00000238      0.00000216      0.0
 <Feb09-2023> <21:43:12>      7      0.00000001      0.00000001      0.0
 <Feb09-2023> <21:43:12>  SCF converged
 <Feb09-2023> <21:43:12>      8      0.00000000      0.00000000      0.0
 <Feb09-2023> <21:43:12>  >>>> POPAN
 <Feb09-2023> <21:43:12>  >>>> DEBYE
 <Feb09-2023> <21:43:12>  NORMAL TERMINATION
 <Feb09-2023> <21:43:12>  END
 <Feb09-2023> <21:43:12>  DIRAC 2019  RunTime: Feb09-2023 21:43:12  Nodes: 1  Procs: 1
 <Feb09-2023> <21:43:12>  NORMAL TERMINATION
 <Feb09-2023> <21:43:12>  END
 <Feb09-2023> <21:43:13>  ADF 2019  RunTime: Feb09-2023 21:43:13  Nodes: 1  Procs: 1
 <Feb09-2023> <21:43:13>  Phosphorus (TZP, 1s frozen)
 <Feb09-2023> <21:43:13>  RunType   : CREATE
 <Feb09-2023> <21:43:13>  Net Charge: 0 (Nuclei minus Electrons)
 <Feb09-2023> <21:43:13>  Symmetry  : ATOM
  Coordinates
    Atom         X           Y           Z   (Angstrom)
    1.P         0.000000    0.000000    0.000000
 <Feb09-2023> <21:43:13>  >>>> CORORT
 <Feb09-2023> <21:43:13>  >>>> CLSMAT
 <Feb09-2023> <21:43:13>  >>>> ORTHON
 <Feb09-2023> <21:43:13>  >>>> GENPT
 <Feb09-2023> <21:43:13>  Block Length=  76
 <Feb09-2023> <21:43:13>  >>>> PTBAS
 <Feb09-2023> <21:43:13>  >>>> CYCLE
 <Feb09-2023> <21:43:13>              |Error|         MaxErr       Wt(A-DIIS)
 <Feb09-2023> <21:43:13>      1      0.00000000      0.00000000
 <Feb09-2023> <21:43:13>      2     18.57419976      5.72946042    100.0
 <Feb09-2023> <21:43:13>      3      7.89224634      2.59295418    100.0
 <Feb09-2023> <21:43:13>      4      4.38717664      1.76162665    100.0
 <Feb09-2023> <21:43:13>      5      1.32434558      0.46695615    100.0
 <Feb09-2023> <21:43:13>      6      0.89465661      0.32855234    100.0
 <Feb09-2023> <21:43:13>      7      0.15275323      0.05676890     56.3
 <Feb09-2023> <21:43:13>      8      0.06211706      0.02306515     22.3
 <Feb09-2023> <21:43:13>      9      0.00895767      0.00340647      2.4
 <Feb09-2023> <21:43:13>     10      0.00016365      0.00006372      0.0
 <Feb09-2023> <21:43:13>     11      0.00000018      0.00000009      0.0
 <Feb09-2023> <21:43:13>     12      0.00000000      0.00000000      0.0
 <Feb09-2023> <21:43:13>  SCF converged
 <Feb09-2023> <21:43:13>     13      0.00000000      0.00000000      0.0
 <Feb09-2023> <21:43:13>  >>>> POPAN
 <Feb09-2023> <21:43:13>  >>>> DEBYE
 <Feb09-2023> <21:43:13>  NORMAL TERMINATION
 <Feb09-2023> <21:43:13>  END

 *******************************************************************************
 *                                                                             *
 *  -------------------------------------                                      *
 *   Amsterdam Density Functional  (ADF)         2019                          *
 *  -------------------------------------                                      *
 *                                               r74351 2019-04-25             *
 *                                                                             *
 *                                                                             *
 *                            =====================                            *
 *                            |                   |                            *
 *                            |     D I R A C     |                            *
 *                            |                   |                            *
 *                            =====================                            *
 *                                                                             *
 *                                                                             *
 *   Online information and documentation:  https://www.scm.com/support/       *
 *   E-mail:  support@scm.com   info@scm.com                                   *
 *                                                                             *
 *   Scientific publications using ADF results must be properly referenced     *
 *   See the User Manuals (or the web site) for recommended citations          *
 *   The terms and conditions of the End User License Agreement apply to       *
 *   the use of ADF, https://www.scm.com/license-terms/                        *
 *                                                                             *
 **********************  x86_64_linux_intel / intelmpi  ************************
 
 Licensed to: Dr. Carles Bo / Institute of Chemical Research of Catalonia ( (ICIQ) / Tarragona / Spain 2022-11-28 14:37:29
 SCM User ID: u7609
  
 DIRAC 2019  RunTime: Feb09-2023 21:43:13  Nodes: 1  Procs: 1

 Temporary files are created in /scratch/kid_0.1193879471

1
 MOLYBDENUM ATOM 3d CORE RELATIVISTIC, Point Nuc, A and c fro
 N J RN H ZN XION ANUC CLIGHT
 5000   15100.00000000197.36710137 42.00000000  0.00000000   97.905406  0.1370360E+03
  PH   PHI     EPS        DEL        DELRVR
  0.30  0.30     2500.00  0.00001000  0.00001000
 IDIRC  NC1  NDEBU NPRIN  IPUN IRCOR IWCOR
   1   300     0     0     0     0     9
   XALPHA      XLATTER      RNUC
  0.70000000  0.00000000  0.00000000 Point Charge
   XN   XL   XJ      XE          XZ      XDELL
  1.0  0.0  0.5   -1500.000       2.000     0.00000
  2.0  0.0  0.5    -325.000       2.000     0.00000
  2.0  1.0  0.5    -325.000       2.000     0.00000
  2.0  1.0  1.5    -325.000       4.000     0.00000
  3.0  0.0  0.5     -70.000       2.000     0.00000
  3.0  1.0  0.5     -70.000       2.000     0.00000
  3.0  1.0  1.5     -70.000       4.000     0.00000
  3.0  2.0  1.5     -60.000       4.000     0.00000
  3.0  2.0  2.5     -60.000       6.000     0.00000
  4.0  0.0  0.5     -10.000       2.000     0.00000
  4.0  1.0  0.5     -10.000       2.000     0.00000
  4.0  1.0  1.5     -10.000       4.000     0.00000
  4.0  2.0  1.5      -1.000       4.000     0.00000
  4.0  2.0  2.5      -1.000       1.000     0.00000
  5.0  0.0  0.5      -0.500       1.000     0.00000
 ICORP=  0  NPCL=  0  DEMP=0.00  PEPS=0.000000
 R(1)=  0.1000000E-08 D=  0.1005080E+01 RNUC=  0.0000000E+00
 converged at cycle   41  DENSITY AVERAGING    0.2400
  MAXIMUM ERROR IN R.V(R) IS   0.93203452E-05
 Q,EY,EV,EZ,ESUM,ETOT,RHO  0.420000E+02 -0.161898E+03 -0.662509E+04 -0.978397E+04 -0.242700E+04 -0.404691E+04  0.342495E-11


 DIRAC CALCULATION
1                    MOLYBDENUM ATOM 3d CORE RELATIVISTIC, Point Nuc, A and c from libtc


 EXCHANGE COEFFICIENT=  0.7000000           TAIL CORRECTION=  0.           NUCLEAR RADIUS=  0.000E+00
0                       ORBITAL    N    L    J     ELECTRONS     EIGENVALUE                DELTA OF EIGENV.

                          1S1/2  1.0  0.0  0.5     2.000       -0.7276812E+03                 0.2822496E-04
                          2S1/2  2.0  0.0  0.5     2.000       -0.1028194E+03                 0.1725465E-04
                          2P1/2  2.0  1.0  0.5     2.000       -0.9468016E+02                 0.1864325E-04
                          2P3/2  2.0  1.0  1.5     4.000       -0.9076266E+02                 0.1832345E-04
                          3S1/2  3.0  0.0  0.5     2.000       -0.1747094E+02                 0.5979346E-05
                          3P1/2  3.0  1.0  0.5     2.000       -0.1436574E+02                 0.6275079E-05
                          3P3/2  3.0  1.0  1.5     4.000       -0.1371946E+02                 0.5984426E-05
                          3D3/2  3.0  2.0  1.5     4.000       -0.8203697E+01                 0.6709395E-05
                          3D5/2  3.0  2.0  2.5     6.000       -0.8081013E+01                 0.6610438E-05
                          4S1/2  4.0  0.0  0.5     2.000       -0.2338238E+01                 0.2446887E-06
                          4P1/2  4.0  1.0  0.5     2.000       -0.1452045E+01                 0.2971982E-06
                          4P3/2  4.0  1.0  1.5     4.000       -0.1358936E+01                 0.3186552E-06
                          4D3/2  4.0  2.0  1.5     4.000       -0.1184046E+00                 0.3378248E-06
                          4D5/2  4.0  2.0  2.5     1.000       -0.1108976E+00                 0.3342679E-06
                          5S1/2  5.0  0.0  0.5     1.000       -0.1320069E+00                 0.9757102E-07


                                        NUCLEAR CHARGE=   42.000000
                            INTEGRAL OF CHARGE DENSITY=   42.000000
                           SUM OF THE ORBITAL ENERGIES=  -2426.9970
                                          TOTAL ENERGY=  -4046.9128
                                        KINETIC ENERGY=   4198.0886
                             NUCLEAR ATTRACTION ENERGY=  -9783.9685
                             ELECTRON REPULSION ENERGY=   1660.3903
                                       EXCHANGE ENERGY=   -121.4232

 *******************************************************************************

                             D I R A C   E X I T
 NORMAL TERMINATION



 =================
 Timing Statistics
 =================
  
 Total Used :                     CPU=        0.45      System=        0.01     Elapsed=        0.47

 Calls  Section                     ( Mean, Percentage )
 ---------------------------------------------------------------------------------------------------
     2  ><      ................      0.00    0.00             0.00    0.00             0.00    0.00
     1  EXIT PROCEDURE .........      0.45  100.00             0.01  100.00             0.47  100.00


 Currently Open Files (EXIT00)
 ====================

 Unit    Access Format  Status   Type       Ident (file)
 -------------------------------------------------------
   3      SEQ    FORM   TRANSP  NORMAL      LOGFILE
                                          ( logfile )
 
Create Mo   file=TZP-Mo.3d
XC
  GGA PBE
End
relativistic ZORA
Corepotentials t12.rel
End

 *******************************************************************************
 *                                                                             *
 *  -------------------------------------                                      *
 *   Amsterdam Density Functional  (ADF)         2019                          *
 *  -------------------------------------                                      *
 *                                               r74351 2019-04-25             *
 *                                                                             *
 *                                                                             *
 *                              =================                              *
 *                              |               |                              *
 *                              |     A D F     |                              *
 *                              |               |                              *
 *                              =================                              *
 *                                                                             *
 *                                                                             *
 *   Online information and documentation:  https://www.scm.com/support/       *
 *   E-mail:  support@scm.com   info@scm.com                                   *
 *                                                                             *
 *   Scientific publications using ADF results must be properly referenced     *
 *   See the User Manuals (or the web site) for recommended citations          *
 *   The terms and conditions of the End User License Agreement apply to       *
 *   the use of ADF, https://www.scm.com/license-terms/                        *
 *                                                                             *
 **********************  x86_64_linux_intel / intelmpi  ************************
 
 Licensed to: Dr. Carles Bo / Institute of Chemical Research of Catalonia ( (ICIQ) / Tarragona / Spain 2022-11-28 14:37:29
 SCM User ID: u7609
  
 ADF 2019  RunTime: Feb09-2023 21:43:14  Nodes: 1  Procs: 1

 Temporary files are created in /scratch/kid_0.2030848051

 Molybdenum (TZP, 3d frozen)



 ===========================
 A T T A C H E D   F I L E S
 ===========================
  
 CREATE - Data File:    TZP-Mo.3d
                        Molybdenum (TZP, 3d frozen)
 Core Potentials:
         file : t12.rel



 ===============================
 M O D E L   P A R A M E T E R S
 ===============================
  
 DENSITY FUNCTIONAL POTENTIAL (scf)
    LDA:                               PW92                                    == Not Default ==
    Gradient Corrections:              PBEc PBEx                               == Not Default ==

 SPIN  (restricted / unrestr.)
    Molecule:                          Restricted                               

 OTHER ASPECTS
    Relativistic Corrections:          scalar (ZORA,MAPA)                      == Not Default ==

    Nuclear Charge Density Model:      Point Charge Nuclei                      
    Core Treatment:                    Frozen Orbital(s)                        

    Hyperfine or Zeeman Interaction:   ---                                      



 =====================================
 S Y M M E T R Y ,   E L E C T R O N S
 =====================================
  
 Symmetry: ATOM

 Irreducible Representations, including subspecies
 -------------------------------------------------
 S
 P:x  P:y  P:z
 D:z2  D:x2-y2  D:xy  D:xz  D:yz
 F:z3  F:z  F:xyz  F:z2x  F:z2y  F:x  F:y


 Configuration of Valence Electrons
 ==================================

          Occupation Numbers
          -------------------------------------------------
 S        2 1
 P        6
 D        5
 F        0
          -------------------------------------------------

 Total:   14

 Net Charge: 0 (Nuclei minus Electrons)

 Preset values for MO occupations will be applied through SCF cycle no. 1000000
 Thereafter, the program will assign electrons to MOs that are spatially
 similar to the occupied MOs in a "reference" cycle ("KeepOrbitals").
 The reference cycle is always the PREVIOUS cycle: it will evolve with
 the SCF procedure.



 ================================
 (Slater-type)  F U N C T I O N S  ***  (Basis and Fit)  ***
 ================================
  

 Atom Type    1  (Mo)
 ==============

 Valence Basis Sets:  18
 -----------------------
   1 S   30.500000
   2 S   17.750000
   3 S    8.350000
   2 P   18.600000
   3 P    8.700000
   3 D   10.050000
   4 S    5.100000
   4 S    3.300000
   5 S    2.150000
   5 S    1.350000
   5 S    0.870000
   4 P    4.950000
   4 P    3.300000
   4 P    2.300000
   4 D    3.500000
   4 D    1.850000
   4 D    0.970000
   5 P    1.350000

 Frozen Core Shells
 ------------------
    S:  3
    P:  2
    D:  1


 BAS: List of all Elementary Cartesian Basis Functions
 =====================================================

 The numbering in the list below (to the right of the function characteristics) is referred
 to in print-outs of MO eigenvectors and Mulliken populations in the BAS representation
 (as contrasted to the SFO representation).

 Notes:
 1. The functions are characterized by a polynomial prefactor (powers of x,y,z and r) and
    an exponential decay factor alpha.
 2. Since the basis sets are specific for an atom TYPE, the individual functions occur on
    all atoms of that type.
 3. The word 'Core' in the left margin signals that it is a Core Function (CF) : not a
    degree of freedom in the valence set, but only used to ensure orthogonalization of
    the other valence basis functions on the frozen Core Orbitals.


 (power of) X  Y  Z  R     Alpha  on Atom
            ==========     =====     ==========

 Mo                                   1
                                  ---------------------------------------------------------------------------
    Core    0  0  0  0    30.500      1
    Core    0  0  0  1    17.750      2
    Core    0  0  0  2     8.350      3
    Core    1  0  0  0    18.600      4
    Core    0  1  0  0    18.600      5
    Core    0  0  1  0    18.600      6
    Core    1  0  0  1     8.700      7
    Core    0  1  0  1     8.700      8
    Core    0  0  1  1     8.700      9
    Core    2  0  0  0    10.050     10
    Core    1  1  0  0    10.050     11
    Core    1  0  1  0    10.050     12
    Core    0  2  0  0    10.050     13
    Core    0  1  1  0    10.050     14
    Core    0  0  2  0    10.050     15
            0  0  0  3     5.100     16
            0  0  0  3     3.300     17
            0  0  0  4     2.150     18
            0  0  0  4     1.350     19
            0  0  0  4     0.870     20
            1  0  0  2     4.950     21
            0  1  0  2     4.950     22
            0  0  1  2     4.950     23
            1  0  0  2     3.300     24
            0  1  0  2     3.300     25
            0  0  1  2     3.300     26
            1  0  0  2     2.300     27
            0  1  0  2     2.300     28
            0  0  1  2     2.300     29
            2  0  0  1     3.500     30
            1  1  0  1     3.500     31
            1  0  1  1     3.500     32
            0  2  0  1     3.500     33
            0  1  1  1     3.500     34
            0  0  2  1     3.500     35
            2  0  0  1     1.850     36
            1  1  0  1     1.850     37
            1  0  1  1     1.850     38
            0  2  0  1     1.850     39
            0  1  1  1     1.850     40
            0  0  2  1     1.850     41
            2  0  0  1     0.970     42
            1  1  0  1     0.970     43
            1  0  1  1     0.970     44
            0  2  0  1     0.970     45
            0  1  1  1     0.970     46
            0  0  2  1     0.970     47
            1  0  0  3     1.350     48
            0  1  0  3     1.350     49
            0  0  1  3     1.350     50

 Total number of charge fitting functions (nprimf)       230
 Total number of Cartesian basis functions (naos)         50
 Total number of Cartesian core functions  (ncos)         15



 BAS: List of all Elementary Cartesian Basis Functions
 =====================================================

 The numbering in the list below (to the right of the function characteristics) is referred
 to in print-outs of MO eigenvectors and Mulliken populations in the BAS representation
 (as contrasted to the SFO representation).

 Notes:
 1. The functions are characterized by a polynomial prefactor (powers of x,y,z and r) and
    an exponential decay factor alpha.
 2. Since the basis sets are specific for an atom TYPE, the individual functions occur on
    all atoms of that type.
 3. The word 'Core' in the left margin signals that it is a Core Function (CF) : not a
    degree of freedom in the valence set, but only used to ensure orthogonalization of
    the other valence basis functions on the frozen Core Orbitals.


 (power of) X  Y  Z  R     Alpha  on Atom
            ==========     =====     ==========

 Mo                                   1
                                  ---------------------------------------------------------------------------
    Core    0  0  0  0    30.500      1
    Core    0  0  0  1    17.750      2
    Core    0  0  0  2     8.350      3
    Core    1  0  0  0    18.600      4
    Core    0  1  0  0    18.600      5
    Core    0  0  1  0    18.600      6
    Core    1  0  0  1     8.700      7
    Core    0  1  0  1     8.700      8
    Core    0  0  1  1     8.700      9
    Core    2  0  0  0    10.050     10
    Core    1  1  0  0    10.050     11
    Core    1  0  1  0    10.050     12
    Core    0  2  0  0    10.050     13
    Core    0  1  1  0    10.050     14
    Core    0  0  2  0    10.050     15
            0  0  0  3     5.100     16
            0  0  0  3     3.300     17
            0  0  0  4     2.150     18
            0  0  0  4     1.350     19
            0  0  0  4     0.870     20
            1  0  0  2     4.950     21
            0  1  0  2     4.950     22
            0  0  1  2     4.950     23
            1  0  0  2     3.300     24
            0  1  0  2     3.300     25
            0  0  1  2     3.300     26
            1  0  0  2     2.300     27
            0  1  0  2     2.300     28
            0  0  1  2     2.300     29
            2  0  0  1     3.500     30
            1  1  0  1     3.500     31
            1  0  1  1     3.500     32
            0  2  0  1     3.500     33
[...]
   32.O        -3.368246    1.522347    1.305745
   33.O         1.756307   -1.395965    3.597972
   34.O         1.524939    1.129416   -3.361585
   35.O        -1.549601    1.404076    3.338788
   36.P         0.006973   -0.006763   -0.032042
   37.O        -3.753705   -0.295423    3.513041
   38.O        -1.422339    3.567106    1.676596
   39.O         1.131363   -3.353696    1.537556
   40.O         1.477571    3.464849   -1.440967
   41.O         0.059625   -3.544580    4.132041
   42.H        -3.907147   -1.561503    1.130629
 <Feb09-2023> <23:55:32>  >>>> CORORT
 <Feb09-2023> <23:55:32>  >>>> CLSMAT
 <Feb09-2023> <23:55:32>  >>>> ORTHON
 <Feb09-2023> <23:55:32>  >>>> GENPT
 <Feb09-2023> <23:55:33>  Block Length= 128
 <Feb09-2023> <23:55:33>  >>>> PTBAS
 <Feb09-2023> <23:55:43>  combining surface points...
 <Feb09-2023> <23:55:43>  combining surface points...
 <Feb09-2023> <23:55:43>  combining surface points...
 <Feb09-2023> <23:55:43>  >>>> CYCLE
 <Feb09-2023> <23:55:51>              |Error|         MaxErr       Wt(A-DIIS)
 <Feb09-2023> <23:55:51>      1      0.11414470      0.01386433
 <Feb09-2023> <23:55:58>      2      0.37207268      0.03488027    100.0
 <Feb09-2023> <23:56:06>      3      0.13625342      0.01348421    100.0
 <Feb09-2023> <23:56:13>      4      0.29349922      0.02676918    100.0
 <Feb09-2023> <23:56:20>      5      0.24054700      0.02589328    100.0
 <Feb09-2023> <23:56:27>      6      0.18099386      0.02659812    100.0
 <Feb09-2023> <23:56:34>      7      0.23227272      0.02967833    100.0
 <Feb09-2023> <23:56:41>      8      0.15273286      0.01896042    100.0
 <Feb09-2023> <23:56:48>      9      0.12516955      0.01801971     17.2
 <Feb09-2023> <23:56:55>     10      0.02305375      0.00269203      1.7
 <Feb09-2023> <23:57:02>     11      0.00545796      0.00068273      0.0
 <Feb09-2023> <23:57:09>     12      0.00237041      0.00024148      0.0
 <Feb09-2023> <23:57:16>     13      0.00126400      0.00015904      0.0
 <Feb09-2023> <23:57:23>     14      0.00070399      0.00008523      0.0
 <Feb09-2023> <23:57:30>     15      0.00040595      0.00004384      0.0
 <Feb09-2023> <23:57:37>     16      0.00017927      0.00001683      0.0
 <Feb09-2023> <23:57:44>     17      0.00009481      0.00001248      0.0
 <Feb09-2023> <23:57:51>     18      0.00012164      0.00001553      0.0
 <Feb09-2023> <23:57:57>     19      0.00005106      0.00000508      0.0
 <Feb09-2023> <23:58:04>     20      0.00003946      0.00000441      0.0
 <Feb09-2023> <23:58:11>     21      0.00004109      0.00000395      0.0
 <Feb09-2023> <23:58:18>     22      0.00001206      0.00000160      0.0
 <Feb09-2023> <23:58:25>     23      0.00000906      0.00000111      0.0
 <Feb09-2023> <23:58:32>     24      0.00000921      0.00000089      0.0
 <Feb09-2023> <23:58:34>  SCF converged
 <Feb09-2023> <23:58:39>     25      0.00000546      0.00000075      0.0
 <Feb09-2023> <23:58:41>  >>>> TOTEN
 <Feb09-2023> <23:58:51>  >>>> POPAN
 <Feb09-2023> <23:58:51>  >>>> DEBYE
 <Feb09-2023> <23:58:51>  >>>> ENGRAD
 <Feb09-2023> <23:59:47>  current energy                              -12.59296662 Hartree
 <Feb09-2023> <23:59:47>  energy change                      -0.00000330     0.00100000    T
 <Feb09-2023> <23:59:47>  constrained gradient max            0.00088593     0.00100000    T
 <Feb09-2023> <23:59:47>  constrained gradient rms            0.00028778     0.00066667    T
 <Feb09-2023> <23:59:47>  gradient max                        0.00088593
 <Feb09-2023> <23:59:47>  gradient rms                        0.00028778
 <Feb09-2023> <23:59:47>  cart. step max                      0.00470118     0.01000000    T
 <Feb09-2023> <23:59:47>  cart. step rms                      0.00117268     0.00666667    T
 <Feb09-2023> <23:59:47>  GEOMETRY CONVERGED
 <Feb09-2023> <23:59:47>  Calculating Energy Terms for Final Geometry
  Coordinates in Geometry Cycle 32
    Atom         X           Y           Z   (Angstrom)
    1.Mo        0.406408   -2.376009    2.922568
    2.O         3.393943   -3.697562   -0.164566
    3.Mo       -0.174423    2.013397   -2.607285
    4.Mo        0.046228    2.391248    2.743168
    5.Mo        2.048397   -2.614887   -0.148638
    6.Mo        2.401716    2.849709   -0.055296
    7.Mo       -2.414798    2.814503    0.378799
    8.O         3.582095    4.063960    0.255669
    9.O        -3.601079    3.988224   -0.033839
   10.Mo       -2.505952    0.014937    2.391521
   11.Mo        2.875517   -0.060243    2.356949
   12.Mo        2.876236    0.377894   -2.358135
   13.O         1.020503   -0.852096    0.880267
   14.O        -0.812744   -0.851933   -0.944111
   15.O         0.921687    1.034430   -0.852082
   16.O        -0.811850    0.897080    0.987756
   17.O        -3.074425   -1.087737    0.912840
   18.O         2.651680   -1.208954   -1.403438
   19.O         4.088475    0.253388    3.543530
   20.O         3.067326    1.329475    1.169230
   21.O         0.217167    3.520791    4.024810
   22.O         1.267463    1.116719    3.122059
   23.O        -1.217076    0.901853   -3.406952
   24.O        -1.160854   -1.333525    2.836386
   25.O        -1.426791    2.590401   -1.202593
   26.O        -0.179451    3.385954   -3.654705
   27.O         1.142357    3.145245    1.353032
   28.O         0.915727   -3.373506   -1.200146
   29.O         3.471521   -1.473565    1.449461
   30.O         4.093403   -0.001430   -3.510869
   31.O         3.594450    1.711684   -1.356525
   32.O        -3.368246    1.522347    1.305745
   33.O         1.756307   -1.395965    3.597972
   34.O         1.524939    1.129416   -3.361585
   35.O        -1.549601    1.404076    3.338788
   36.P         0.006973   -0.006763   -0.032042
   37.O        -3.753705   -0.295423    3.513041
   38.O        -1.422339    3.567106    1.676596
   39.O         1.131363   -3.353696    1.537556
   40.O         1.477571    3.464849   -1.440967
   41.O         0.059625   -3.544580    4.132041
   42.H        -3.907147   -1.561503    1.130629
 <Feb09-2023> <23:59:47>  >>>> CORORT
 <Feb09-2023> <23:59:47>  >>>> CLSMAT
 <Feb09-2023> <23:59:47>  >>>> ORTHON
 <Feb09-2023> <23:59:48>  >>>> GENPT
 <Feb09-2023> <23:59:48>  Block Length= 128
 <Feb09-2023> <23:59:48>  >>>> PTBAS
 <Feb09-2023> <23:59:58>  combining surface points...
 <Feb09-2023> <23:59:58>  combining surface points...
 <Feb09-2023> <23:59:58>  combining surface points...
 <Feb09-2023> <23:59:58>  >>>> CYCLE
 <Feb10-2023> <00:00:07>              |Error|         MaxErr       Wt(A-DIIS)
 <Feb10-2023> <00:00:07>      1      0.11353149      0.02557463
 <Feb10-2023> <00:00:14>      2      0.37019442      0.04495083    100.0
 <Feb10-2023> <00:00:21>      3      0.13657648      0.02355305    100.0
 <Feb10-2023> <00:00:28>      4      0.29765581      0.03322237    100.0
 <Feb10-2023> <00:00:35>      5      0.23147833      0.02355668    100.0
 <Feb10-2023> <00:00:42>      6      0.17779874      0.02547370    100.0
 <Feb10-2023> <00:00:49>      7      0.23049868      0.03366820    100.0
 <Feb10-2023> <00:00:56>      8      0.14570623      0.02275058     22.0
 <Feb10-2023> <00:01:03>      9      0.04262010      0.00671967      5.8
 <Feb10-2023> <00:01:10>     10      0.01551548      0.00182293      0.8
 <Feb10-2023> <00:01:17>     11      0.00497624      0.00100333      0.0
 <Feb10-2023> <00:01:24>     12      0.00207416      0.00029912      0.0
 <Feb10-2023> <00:01:31>     13      0.00120344      0.00017518      0.0
 <Feb10-2023> <00:01:38>     14      0.00081988      0.00009955      0.0
 <Feb10-2023> <00:01:45>     15      0.00037726      0.00005077      0.0
 <Feb10-2023> <00:01:52>     16      0.00018010      0.00002205      0.0
 <Feb10-2023> <00:01:59>     17      0.00005803      0.00000711      0.0
 <Feb10-2023> <00:02:06>     18      0.00015200      0.00001715      0.0
 <Feb10-2023> <00:02:13>     19      0.00001766      0.00000179      0.0
 <Feb10-2023> <00:02:20>     20      0.00001165      0.00000186      0.0
 <Feb10-2023> <00:02:26>     21      0.00002361      0.00000260      0.0
 <Feb10-2023> <00:02:33>     22      0.00000619      0.00000093      0.0
 <Feb10-2023> <00:02:35>  SCF converged
 <Feb10-2023> <00:02:40>     23      0.00000446      0.00000094      0.0
 <Feb10-2023> <00:02:46>  >>>> TOTEN
 <Feb10-2023> <00:03:07>  QTAIM: determining topology...
 <Feb10-2023> <00:03:25>  >>>> POPAN
 <Feb10-2023> <00:03:25>  >>>> DEBYE
 <Feb10-2023> <00:03:25>  >>>> AMETS
 <Feb10-2023> <00:03:26>  >>>> POPUL
 <Feb10-2023> <00:03:26>   Bond Energy         -12.59296662 a.u.
 <Feb10-2023> <00:03:26>   Bond Energy        -342.67205703 eV
 <Feb10-2023> <00:03:26>   Bond Energy       -7902.21       kcal/mol
 <Feb10-2023> <00:03:26>  >>>> ENHESS
 <Feb10-2023> <00:03:56>  === NUCLEUS:     1
 <Feb10-2023> <00:12:33>  === NUCLEUS:     2
 <Feb10-2023> <00:20:07>  === NUCLEUS:     3
 <Feb10-2023> <00:28:05>  === NUCLEUS:     4
 <Feb10-2023> <00:35:38>  === NUCLEUS:     5
 <Feb10-2023> <00:43:19>  === NUCLEUS:     6
 <Feb10-2023> <00:50:53>  === NUCLEUS:     7
 <Feb10-2023> <00:58:52>  === NUCLEUS:     8
 <Feb10-2023> <01:06:35>  === NUCLEUS:     9
 <Feb10-2023> <01:14:17>  === NUCLEUS:    10
 <Feb10-2023> <01:21:32>  === NUCLEUS:    11
 <Feb10-2023> <01:28:48>  === NUCLEUS:    12
 <Feb10-2023> <01:36:03>  === NUCLEUS:    13
 <Feb10-2023> <01:52:26>  === NUCLEUS:    14
 <Feb10-2023> <01:59:49>  === NUCLEUS:    15
 <Feb10-2023> <02:07:12>  === NUCLEUS:    16
 <Feb10-2023> <02:14:35>  === NUCLEUS:    17
 <Feb10-2023> <02:22:06>  === NUCLEUS:    18
 <Feb10-2023> <02:29:22>  === NUCLEUS:    19
 <Feb10-2023> <02:36:37>  === NUCLEUS:    20
 <Feb10-2023> <02:44:01>  === NUCLEUS:    21
 <Feb10-2023> <02:51:16>  === NUCLEUS:    22
 <Feb10-2023> <02:58:40>  === NUCLEUS:    23
 <Feb10-2023> <03:05:54>  === NUCLEUS:    24
 <Feb10-2023> <03:13:10>  === NUCLEUS:    25
 <Feb10-2023> <03:20:25>  === NUCLEUS:    26
 <Feb10-2023> <03:27:38>  === NUCLEUS:    27
 <Feb10-2023> <03:35:02>  === NUCLEUS:    28
 <Feb10-2023> <03:42:25>  === NUCLEUS:    29
 <Feb10-2023> <03:49:38>  === NUCLEUS:    30
 <Feb10-2023> <03:56:44>  === NUCLEUS:    31
 <Feb10-2023> <04:04:07>  === NUCLEUS:    32
 <Feb10-2023> <04:11:30>  === NUCLEUS:    33
 <Feb10-2023> <04:18:54>  === NUCLEUS:    34
 <Feb10-2023> <04:26:17>  === NUCLEUS:    35
 <Feb10-2023> <04:33:41>  === NUCLEUS:    36
 <Feb10-2023> <04:41:03>  === NUCLEUS:    37
 <Feb10-2023> <04:48:27>  === NUCLEUS:    38
 <Feb10-2023> <04:55:51>  === NUCLEUS:    39
 <Feb10-2023> <05:03:06>  === NUCLEUS:    40
 <Feb10-2023> <05:10:21>  === NUCLEUS:    41
 <Feb10-2023> <05:18:11>  === NUCLEUS:    42
 <Feb10-2023> <05:25:33>  >>>> CALC_HESS_PMAT
 <Feb10-2023> <05:28:27>  >>>> CALC_HESS_WMAT
 <Feb10-2023> <05:28:49>  Symmetry  : NOSYM
 <Feb10-2023> <05:28:49>  >>>> FRAGM
 <Feb10-2023> <05:28:49>  Geometry symmetry displacement    1 out of    2
  Coordinates in Geometry Cycle 32
    Atom         X           Y           Z   (Angstrom)
    1.Mo        0.406439   -2.376027    2.922482
    2.O         3.394191   -3.697542   -0.164530
    3.Mo       -0.174481    2.013419   -2.607224
    4.Mo        0.046202    2.391221    2.743249
    5.Mo        2.048617   -2.614904   -0.148580
    6.Mo        2.401627    2.849666   -0.055320
    7.Mo       -2.414785    2.814673    0.378877
    8.O         3.581968    4.063980    0.255539
    9.O        -3.600957    3.988527   -0.033716
   10.Mo       -2.505868    0.014868    2.391390
   11.Mo        2.875505   -0.060205    2.356940
   12.Mo        2.876189    0.377873   -2.358165
   13.O         1.020518   -0.852178    0.880371
   14.O        -0.812730   -0.852239   -0.943951
   15.O         0.921623    1.034271   -0.852062
   16.O        -0.811904    0.896953    0.987762
   17.O        -3.074506   -1.087869    0.912850
   18.O         2.651757   -1.208972   -1.403391
   19.O         4.088432    0.253416    3.543553
   20.O         3.067378    1.329449    1.169171
   21.O         0.217269    3.520735    4.024896
   22.O         1.267504    1.116683    3.122018
   23.O        -1.217109    0.901734   -3.406740
   24.O        -1.161028   -1.333622    2.836179
   25.O        -1.426810    2.590445   -1.202535
   26.O        -0.179610    3.385881   -3.654774
   27.O         1.142368    3.145169    1.353031
   28.O         0.915920   -3.373614   -1.199996
   29.O         3.471500   -1.473607    1.449536
   30.O         4.093327   -0.001434   -3.510935
   31.O         3.594392    1.711676   -1.356582
   32.O        -3.368253    1.522547    1.305674
   33.O         1.756222   -1.395955    3.598004
   34.O         1.524880    1.129416   -3.361567
   35.O        -1.549492    1.403997    3.338832
   36.P         0.006949   -0.006915   -0.031997
   37.O        -3.754194   -0.294559    3.512529
   38.O        -1.422206    3.567125    1.676709
   39.O         1.131580   -3.353775    1.537656
   40.O         1.477411    3.464699   -1.441015
   41.O         0.059577   -3.544551    4.131968
   42.H        -3.910914   -1.556336    1.128024
 <Feb10-2023> <05:28:50>  >>>> CORORT
 <Feb10-2023> <05:28:50>  >>>> CLSMAT
 <Feb10-2023> <05:28:50>  >>>> ORTHON
 <Feb10-2023> <05:28:50>  >>>> GENPT
 <Feb10-2023> <05:28:50>  Block Length= 128
 <Feb10-2023> <05:28:51>  >>>> PTBAS
 <Feb10-2023> <05:29:00>  combining surface points...
 <Feb10-2023> <05:29:01>  combining surface points...
 <Feb10-2023> <05:29:01>  combining surface points...
 <Feb10-2023> <05:29:01>  >>>> CYCLE
 <Feb10-2023> <05:29:09>              |Error|         MaxErr       Wt(A-DIIS)
 <Feb10-2023> <05:29:09>      1      0.11357503      0.01443433
 <Feb10-2023> <05:29:16>      2      0.37002102      0.03464371    100.0
 <Feb10-2023> <05:29:23>      3      0.13644173      0.01341584    100.0
 <Feb10-2023> <05:29:30>      4      0.29677363      0.02709733    100.0
 <Feb10-2023> <05:29:37>      5      0.23243404      0.02496569    100.0
 <Feb10-2023> <05:29:44>      6      0.17793800      0.02626023    100.0
 <Feb10-2023> <05:29:52>      7      0.23038229      0.02871519    100.0
 <Feb10-2023> <05:29:59>      8      0.14660780      0.01831656     17.5
 <Feb10-2023> <05:30:06>      9      0.03687233      0.00532155      4.4
 <Feb10-2023> <05:30:13>     10      0.01293816      0.00148102      0.5
 <Feb10-2023> <05:30:20>     11      0.00492579      0.00079236      0.0
 <Feb10-2023> <05:30:27>     12      0.00206177      0.00023333      0.0
 <Feb10-2023> <05:30:34>     13      0.00125558      0.00013936      0.0
 <Feb10-2023> <05:30:41>     14      0.00086370      0.00008399      0.0
 <Feb10-2023> <05:30:48>     15      0.00038001      0.00005404      0.0
 <Feb10-2023> <05:30:55>     16      0.00018205      0.00001879      0.0
 <Feb10-2023> <05:31:01>     17      0.00006202      0.00000698      0.0
 <Feb10-2023> <05:31:08>     18      0.00015673      0.00001941      0.0
 <Feb10-2023> <05:31:15>     19      0.00003834      0.00000400      0.0
 <Feb10-2023> <05:31:22>     20      0.00000539      0.00000052      0.0
 <Feb10-2023> <05:31:24>  SCF converged
 <Feb10-2023> <05:31:29>     21      0.00001664      0.00000151      0.0
 <Feb10-2023> <05:31:32>  >>>> TOTEN
 <Feb10-2023> <05:31:34>  >>>> POPAN
 <Feb10-2023> <05:31:34>  >>>> DEBYE
 <Feb10-2023> <05:31:34>  >>>> ENGRAD
 <Feb10-2023> <05:32:30>  Geometry symmetry displacement    2 out of    2
  Coordinates in Geometry Cycle 32
    Atom         X           Y           Z   (Angstrom)
    1.Mo        0.406378   -2.375990    2.922654
    2.O         3.393694   -3.697583   -0.164602
    3.Mo       -0.174364    2.013375   -2.607346
    4.Mo        0.046255    2.391276    2.743086
    5.Mo        2.048177   -2.614869   -0.148697
    6.Mo        2.401805    2.849751   -0.055272
    7.Mo       -2.414811    2.814332    0.378721
    8.O         3.582221    4.063941    0.255799
    9.O        -3.601201    3.987921   -0.033963
   10.Mo       -2.506037    0.015007    2.391652
   11.Mo        2.875529   -0.060281    2.356958
   12.Mo        2.876283    0.377915   -2.358105
   13.O         1.020488   -0.852015    0.880163
   14.O        -0.812759   -0.851628   -0.944271
   15.O         0.921750    1.034590   -0.852101
   16.O        -0.811796    0.897208    0.987751
   17.O        -3.074344   -1.087605    0.912830
   18.O         2.651602   -1.208936   -1.403485
   19.O         4.088518    0.253361    3.543507
   20.O         3.067274    1.329501    1.169289
   21.O         0.217064    3.520847    4.024724
   22.O         1.267423    1.116754    3.122099
   23.O        -1.217043    0.901971   -3.407165
   24.O        -1.160680   -1.333429    2.836594
   25.O        -1.426771    2.590357   -1.202652
   26.O        -0.179292    3.386028   -3.654636
   27.O         1.142345    3.145321    1.353033
   28.O         0.915534   -3.373398   -1.200295
   29.O         3.471542   -1.473523    1.449385
   30.O         4.093479   -0.001426   -3.510804
   31.O         3.594508    1.711692   -1.356468
   32.O        -3.368240    1.522146    1.305817
   33.O         1.756392   -1.395975    3.597939
   34.O         1.524998    1.129417   -3.361603
   35.O        -1.549710    1.404155    3.338744
   36.P         0.006996   -0.006611   -0.032087
   37.O        -3.753216   -0.296288    3.513553
   38.O        -1.422471    3.567087    1.676482
   39.O         1.131145   -3.353617    1.537456
   40.O         1.477732    3.464999   -1.440918
   41.O         0.059673   -3.544609    4.132114
   42.H        -3.903379   -1.566670    1.133235
 <Feb10-2023> <05:32:30>  >>>> CORORT
 <Feb10-2023> <05:32:31>  >>>> CLSMAT
 <Feb10-2023> <05:32:31>  >>>> ORTHON
 <Feb10-2023> <05:32:31>  >>>> GENPT
 <Feb10-2023> <05:32:31>  Block Length= 128
 <Feb10-2023> <05:32:31>  >>>> PTBAS
 <Feb10-2023> <05:32:41>  combining surface points...
 <Feb10-2023> <05:32:41>  combining surface points...
 <Feb10-2023> <05:32:41>  combining surface points...
 <Feb10-2023> <05:32:41>  >>>> CYCLE
 <Feb10-2023> <05:32:50>              |Error|         MaxErr       Wt(A-DIIS)
 <Feb10-2023> <05:32:50>      1      0.11392455      0.01389960
 <Feb10-2023> <05:32:57>      2      0.37052046      0.03471993    100.0
 <Feb10-2023> <05:33:04>      3      0.13743777      0.01326829    100.0
 <Feb10-2023> <05:33:11>      4      0.30368886      0.02767766    100.0
 <Feb10-2023> <05:33:18>      5      0.22408430      0.02433868    100.0
 <Feb10-2023> <05:33:25>      6      0.17623086      0.02661907    100.0
 <Feb10-2023> <05:33:32>      7      0.23124780      0.02843341    100.0
 <Feb10-2023> <05:33:39>      8      0.13836683      0.01750476     16.7
 <Feb10-2023> <05:33:46>      9      0.03796742      0.00548368      4.5
 <Feb10-2023> <05:33:53>     10      0.01286081      0.00145177      0.5
 <Feb10-2023> <05:34:00>     11      0.00486572      0.00078264      0.0
 <Feb10-2023> <05:34:07>     12      0.00203838      0.00023397      0.0
 <Feb10-2023> <05:34:14>     13      0.00126381      0.00014059      0.0
 <Feb10-2023> <05:34:21>     14      0.00081600      0.00008025      0.0
 <Feb10-2023> <05:34:28>     15      0.00037699      0.00005252      0.0
 <Feb10-2023> <05:34:35>     16      0.00017861      0.00001898      0.0
 <Feb10-2023> <05:34:42>     17      0.00006138      0.00000698      0.0
 <Feb10-2023> <05:34:49>     18      0.00015084      0.00001911      0.0
 <Feb10-2023> <05:34:56>     19      0.00004045      0.00000400      0.0
 <Feb10-2023> <05:35:02>     20      0.00000615      0.00000059      0.0
 <Feb10-2023> <05:35:05>  SCF converged
 <Feb10-2023> <05:35:09>     21      0.00001564      0.00000149      0.0
 <Feb10-2023> <05:35:12>  >>>> TOTEN
 <Feb10-2023> <05:35:15>  >>>> POPAN
 <Feb10-2023> <05:35:15>  >>>> DEBYE
 <Feb10-2023> <05:35:15>  >>>> ENGRAD
 <Feb10-2023> <05:36:10>  Old frequency:    -15.01349, new:    134.48838
 <Feb10-2023> <05:36:10>  NOTE: Some frequencies have been re-calculated by numerical differentiation
 <Feb10-2023> <05:36:10>        Check the text output file for new values!
 <Feb10-2023> <05:36:10>  NORMAL TERMINATION
 <Feb10-2023> <05:36:11>  END
