
 *******************************************************************************
 *                                                                             *
 *  -------------------------------------                                      *
 *   Amsterdam Density Functional  (ADF)         2019                          *
 *  -------------------------------------                                      *
 *                                               r74351 2019-04-25             *
 *                                                                             *
 *                                                                             *
 *                            =====================                            *
 *                            |                   |                            *
 *                            |     D I R A C     |                            *
 *                            |                   |                            *
 *                            =====================                            *
 *                                                                             *
 *                                                                             *
 *   Online information and documentation:  https://www.scm.com/support/       *
 *   E-mail:  support@scm.com   info@scm.com                                   *
 *                                                                             *
 *   Scientific publications using ADF results must be properly referenced     *
 *   See the User Manuals (or the web site) for recommended citations          *
 *   The terms and conditions of the End User License Agreement apply to       *
 *   the use of ADF, https://www.scm.com/license-terms/                        *
 *                                                                             *
 **********************  x86_64_linux_intel / intelmpi  ************************
 
 Licensed to: Dr. Carles Bo / Institute of Chemical Research of Catalonia ( (ICIQ) / Tarragona / Spain 2022-11-28 14:37:29
 SCM User ID: u7609
  
 DIRAC 2019  RunTime: Feb16-2023 07:49:40  Nodes: 1  Procs: 1

 Temporary files are created in /scratch/kid_0.1534576014

1
 HYDROGEN ATOM RELATIVISTIC, Point Nuc, A and c from libtc   
 N J RN H ZN XION ANUC CLIGHT
 5000    1100.00000000197.36710137  1.00000000  0.00000000    1.007825  0.1370360E+03
  PH   PHI     EPS        DEL        DELRVR
  0.30  0.30     2500.00  0.00001000  0.00001000
 IDIRC  NC1  NDEBU NPRIN  IPUN IRCOR IWCOR
   1   300     0     0     0     0     0
   XALPHA      XLATTER      RNUC
  0.70000000  0.00000000  0.00000000 Point Charge
   XN   XL   XJ      XE          XZ      XDELL
  1.0  0.0  0.5      -1.000       1.000     0.00000
 ICORP=  0  NPCL=  0  DEMP=0.00  PEPS=0.000000
 R(1)=  0.1000000E-08 D=  0.1005080E+01 RNUC=  0.0000000E+00
 converged at cycle   32  DENSITY AVERAGING    0.2400
  MAXIMUM ERROR IN R.V(R) IS   0.79874357E-05
 Q,EY,EV,EZ,ESUM,ETOT,RHO  0.100000E+01 -0.266614E+00 -0.619969E+00 -0.910779E+00 -0.203940E+00 -0.415998E+00  0.337036E-17


 DIRAC CALCULATION
1                    HYDROGEN ATOM RELATIVISTIC, Point Nuc, A and c from libtc


 EXCHANGE COEFFICIENT=  0.7000000           TAIL CORRECTION=  0.           NUCLEAR RADIUS=  0.000E+00
0                       ORBITAL    N    L    J     ELECTRONS     EIGENVALUE                DELTA OF EIGENV.

                          1S1/2  1.0  0.0  0.5     1.000       -0.2039397E+00                 0.2720093E-06


                                        NUCLEAR CHARGE=    1.000000
                            INTEGRAL OF CHARGE DENSITY=    1.000000
                           SUM OF THE ORBITAL ENERGIES=     -0.2039
                                          TOTAL ENERGY=     -0.4160
                                        KINETIC ENERGY=      0.4160
                             NUCLEAR ATTRACTION ENERGY=     -0.9108
                             ELECTRON REPULSION ENERGY=      0.2787
                                       EXCHANGE ENERGY=     -0.2000

 *******************************************************************************

                             D I R A C   E X I T
 NORMAL TERMINATION



 =================
 Timing Statistics
 =================
  
 Total Used :                     CPU=        0.08      System=        0.00     Elapsed=        0.08

 Calls  Section                     ( Mean, Percentage )
 ---------------------------------------------------------------------------------------------------
     2  ><      ................      0.00    0.00             0.00    0.00             0.00    0.01
     1  EXIT PROCEDURE .........      0.08  100.00             0.00    0.00             0.08   99.99


 Currently Open Files (EXIT00)
 ====================

 Unit    Access Format  Status   Type       Ident (file)
 -------------------------------------------------------
   3      SEQ    FORM   TRANSP  NORMAL      LOGFILE
                                          ( logfile )
 
Create H   file=TZP-H
XC
  GGA PBE
End
relativistic ZORA
Corepotentials t12.rel
End

 *******************************************************************************
 *                                                                             *
 *  -------------------------------------                                      *
 *   Amsterdam Density Functional  (ADF)         2019                          *
 *  -------------------------------------                                      *
 *                                               r74351 2019-04-25             *
 *                                                                             *
 *                                                                             *
 *                              =================                              *
 *                              |               |                              *
 *                              |     A D F     |                              *
 *                              |               |                              *
 *                              =================                              *
 *                                                                             *
 *                                                                             *
 *   Online information and documentation:  https://www.scm.com/support/       *
 *   E-mail:  support@scm.com   info@scm.com                                   *
 *                                                                             *
 *   Scientific publications using ADF results must be properly referenced     *
 *   See the User Manuals (or the web site) for recommended citations          *
 *   The terms and conditions of the End User License Agreement apply to       *
 *   the use of ADF, https://www.scm.com/license-terms/                        *
 *                                                                             *
 **********************  x86_64_linux_intel / intelmpi  ************************
 
 Licensed to: Dr. Carles Bo / Institute of Chemical Research of Catalonia ( (ICIQ) / Tarragona / Spain 2022-11-28 14:37:29
 SCM User ID: u7609
  
 ADF 2019  RunTime: Feb16-2023 07:49:41  Nodes: 1  Procs: 1

 Temporary files are created in /scratch/kid_0.733270086

 Hydrogen (TZP)



 ===========================
 A T T A C H E D   F I L E S
 ===========================
  
 CREATE - Data File:    TZP-H
                        Hydrogen (TZP)
 Core Potentials:
         file : t12.rel



 ===============================
 M O D E L   P A R A M E T E R S
 ===============================
  
 DENSITY FUNCTIONAL POTENTIAL (scf)
    LDA:                               PW92                                    == Not Default ==
    Gradient Corrections:              PBEc PBEx                               == Not Default ==

 SPIN  (restricted / unrestr.)
    Molecule:                          Restricted                               

 OTHER ASPECTS
    Relativistic Corrections:          scalar (ZORA,MAPA)                      == Not Default ==

    Nuclear Charge Density Model:      Point Charge Nuclei                      
    Core Treatment:                    Frozen Orbital(s)                        

    Hyperfine or Zeeman Interaction:   ---                                      



 =====================================
 S Y M M E T R Y ,   E L E C T R O N S
 =====================================
  
 Symmetry: ATOM

 Irreducible Representations, including subspecies
 -------------------------------------------------
 S
 P:x  P:y  P:z
 D:z2  D:x2-y2  D:xy  D:xz  D:yz
 F:z3  F:z  F:xyz  F:z2x  F:z2y  F:x  F:y


 Configuration of Valence Electrons
 ==================================

          Occupation Numbers
          -------------------------------------------------
 S        1
 P        0
 D        0
 F        0
          -------------------------------------------------

 Total:   1

 Net Charge: 0 (Nuclei minus Electrons)

 Preset values for MO occupations will be applied through SCF cycle no. 1000000
 Thereafter, the program will assign electrons to MOs that are spatially
 similar to the occupied MOs in a "reference" cycle ("KeepOrbitals").
 The reference cycle is always the PREVIOUS cycle: it will evolve with
 the SCF procedure.



 ================================
 (Slater-type)  F U N C T I O N S  ***  (Basis and Fit)  ***
 ================================
  

 Atom Type    1  (H)
 ==============

 Valence Basis Sets:   4
 -----------------------
   1 S    0.690000
   1 S    0.920000
   1 S    1.580000
   2 P    1.250000


 BAS: List of all Elementary Cartesian Basis Functions
 =====================================================

 The numbering in the list below (to the right of the function characteristics) is referred
 to in print-outs of MO eigenvectors and Mulliken populations in the BAS representation
 (as contrasted to the SFO representation).

 Notes:
 1. The functions are characterized by a polynomial prefactor (powers of x,y,z and r) and
    an exponential decay factor alpha.
 2. Since the basis sets are specific for an atom TYPE, the individual functions occur on
    all atoms of that type.
 3. The word 'Core' in the left margin signals that it is a Core Function (CF) : not a
    degree of freedom in the valence set, but only used to ensure orthogonalization of
    the other valence basis functions on the frozen Core Orbitals.


 (power of) X  Y  Z  R     Alpha  on Atom
            ==========     =====     ==========

 H                                    1
                                  ---------------------------------------------------------------------------
            0  0  0  0     0.690      1
            0  0  0  0     0.920      2
            0  0  0  0     1.580      3
            1  0  0  0     1.250      4
            0  1  0  0     1.250      5
            0  0  1  0     1.250      6

 Total number of charge fitting functions (nprimf)        50
 Total number of Cartesian basis functions (naos)          6
 Total number of Cartesian core functions  (ncos)          0



 BAS: List of all Elementary Cartesian Basis Functions
 =====================================================

 The numbering in the list below (to the right of the function characteristics) is referred
 to in print-outs of MO eigenvectors and Mulliken populations in the BAS representation
 (as contrasted to the SFO representation).

 Notes:
 1. The functions are characterized by a polynomial prefactor (powers of x,y,z and r) and
    an exponential decay factor alpha.
 2. Since the basis sets are specific for an atom TYPE, the individual functions occur on
    all atoms of that type.
 3. The word 'Core' in the left margin signals that it is a Core Function (CF) : not a
    degree of freedom in the valence set, but only used to ensure orthogonalization of
    the other valence basis functions on the frozen Core Orbitals.


 (power of) X  Y  Z  R     Alpha  on Atom
            ==========     =====     ==========

 H                                    1
                                  ---------------------------------------------------------------------------
            0  0  0  0     0.690      1
            0  0  0  0     0.920      2
            0  0  0  0     1.580      3
            1  0  0  0     1.250      4
            0  1  0  0     1.250      5
            0  0  1  0     1.250      6
1
 ***************************************************************************************************



                                              ***********************
                                              *  T E C H N I C A L  *
                                              ***********************
  



 =============================================================
 P A R A L L E L I Z A T I O N  and  V E C T O R I Z A T I O N
 =============================================================
  
 Nr of parallel processes:                                1
 Maximum vector length in NumInt loops:                 128



 =====================
 S C F   U P D A T E S
 =====================
  
 Max. nr. of cycles:                               300
 Convergence criterion:                              0.0000000100
   secondary criterion:                              0.0000000100

 Mix parameter (when DIIS does not apply):           0.2000000000
 Special mix parameter for the first cycle:          1.0000000000
 Mixed ADIIS+SDIIS will be used                  
    Max number of expansion vectors:                10
    Pure ADIIS when Max([F,P]) is above              0.1000000000
    Pure SDIIS when Max([F,P]) is below              0.0010000000
 Automatic ElectronSmearing (in case of problematic SCF convergence) disabled



 =================
 P R E C I S I O N  ***  (General: NumInt, NeglectFunctionTails, ...)  ***
 =================
  

 NumInt:           Target precision:                12.0000000000
 -------           Initial precision:               10.0000000000
                   Min. precision (optimization):   10.0000000000

 Neglect Functions:          Basis functions:        0.1000000000E-13
 ------------------          Fit functions:          0.1000000000E-13



 ===========================
 L I N E A R   S C A L I N G
 ===========================
  

 Cut-off radii density fit:                        0.1000000000E-97
 Overlap cut-off criterion AO matrix elements:     0.1000000000E-97
 Cut-offs for Coulomb potential and fitted density:0.1000000000E-97
 Cut-off criterion for Coulomb multipole terms:    0.1000000000E-97
 Progressive Convergence parameter:                 0.000000000    
1
 ***************************************************************************************************



                                            ***************************
                                            *  C O M P U T A T I O N  *
                                            ***************************
  

 Number of elements of the density matrix on this node (used, total):        21        21



 ===========================================
 Numerical Integration : Fuzzy Cells (Becke)
 ===========================================
  
 Becke grid quality: VERYGOOD       
  
 Lebedev angular grid order:             min:  13 max:  41
 Nr. of radial points:                   min:  64 max:  64

 Total nr. of points:         64
 Nr. of blocks:                1
 Block length:                64
 Nr. of dummy points:          0


 Test of Precision of the Numerical Integration Grid
 ===================================================

 Integral of the Total Core Density:                   0.00000000000000



 ========================
 Density Fitting (zlmFit)
 ========================
  
 ZlmFit Fit Quality: VERYGOOD       
  
 Max L-expansion:                        min:   0 max:   0
 Nr. of radial interpolation points:     min: 120 max: 120



 =====
 S C F  ***  ScaSCF  ***
 =====
  

 CYCLE    1
 SCF Error: norm([F,P])=      0.000000000000, max([F,P])=      0.000000000000
 orbitals (Q,E):
 ---------------
 S :1...3            ( 1.00    -0.5000)  ( 0.00    -0.0900)  ( 0.00     1.2936)
 P :1...1            ( 0.00     0.1562)

 CYCLE    2
 SCF Error: norm([F,P])=      0.031537872292, max([F,P])=      0.030110494752
 orbitals (Q,E):
 ---------------
 S :1...2            ( 1.00    -0.2218)  ( 0.00     0.1019)
 P :1...1            ( 0.00     0.4189)

 CYCLE    3
  SDIIS (wt  0.000):  0.1996  0.8004
 A-DIIS (wt  1.000):  0.0000  1.0000
  DIIS coefficients:  0.0000  1.0000
 SCF Error: norm([F,P])=      0.008617989401, max([F,P])=      0.008343029399
 orbitals (Q,E):
 ---------------
 S :1...2            ( 1.00    -0.2422)  ( 0.00     0.0889)
 P :1...1            ( 0.00     0.4024)

 CYCLE    4
  SDIIS (wt  0.993):  0.1666  0.8334
 A-DIIS (wt  0.007):  0.0000  1.0000
  DIIS coefficients:  0.1654  0.8346
 SCF Error: norm([F,P])=      0.001732350026, max([F,P])=      0.001718616814
 orbitals (Q,E):
 ---------------
 S :1...2            ( 1.00    -0.2385)  ( 0.00     0.0908)
 P :1...1            ( 0.00     0.4054)

 CYCLE    5
  SDIIS (wt  1.000):  0.0236  0.9764
  DIIS coefficients:  0.0236  0.9764
 SCF Error: norm([F,P])=      0.000043673449, max([F,P])=      0.000039769875
 orbitals (Q,E):
 ---------------
 S :1...2            ( 1.00    -0.2386)  ( 0.00     0.0908)
 P :1...1            ( 0.00     0.4054)

 CYCLE    6
  SDIIS (wt  1.000): -0.0577  1.0577
  DIIS coefficients: -0.0577  1.0577
 SCF Error: norm([F,P])=      0.000002383805, max([F,P])=      0.000002158128
 orbitals (Q,E):
 ---------------
 S :1...2            ( 1.00    -0.2386)  ( 0.00     0.0908)
 P :1...1            ( 0.00     0.4054)

 CYCLE    7
  SDIIS (wt  1.000): -0.0032  1.0032
  DIIS coefficients: -0.0032  1.0032
 SCF Error: norm([F,P])=      0.000000007721, max([F,P])=      0.000000007228
 orbitals (Q,E):
 ---------------
 S :1...2            ( 1.00    -0.2386)  ( 0.00     0.0908)
 P :1...1            ( 0.00     0.4054)

 SCF CONVERGED

 CYCLE    8
1
 ***************************************************************************************************



                                                *******************
                                                *  R E S U L T S  *
                                                *******************
  
 *** Using FIT density in Focky
  SDIIS (wt  1.000):  0.0192  0.9808
  DIIS coefficients:  0.0192  0.9808
 SCF Error: norm([F,P])=      0.000000000151, max([F,P])=      0.000000000141

 Scaled ZORA Orbital Energies, per Irrep and Spin:
 =================================================
                        Occup              E (au)              E (eV)       Diff (eV) with prev. cycle
                        -----      --------------------        ------       --------------------------
 S
               1        1.000     -0.23861775226993E+00        -6.493               7.43E-09
               2        0.000      0.90791701709251E-01         2.471
               3        0.000      0.15217530108908E+01        41.409
 P
               1        0.000      0.40537978060393E+00        11.031


 Partially Occupied:
               1 S                -0.23861775226993E+00
  
 LUMO :        2 S                 0.90791701709251E-01
  


 Orbital Energies, all Irreps
 ========================================

 Irrep        no.  (spin)   Occup              E (au)                E (eV)
 ---------------------------------------------------------------------------
 S             1             1.00       -0.23861775226993E+00        -6.4931
 S             2             0.00        0.90791701709251E-01         2.4706
 P             1             0.00        0.40537978060393E+00        11.0309
 S             3             0.00        0.15217530108908E+01        41.4090


 All Electron Calculation, thus no Orbital Energies of the Core Orbitals are calculated



 =======================================
 M U L L I K E N   P O P U L A T I O N S
 =======================================
  
 The survey below gives for each atom:
 a) the total charge (Z minus electrons)
 b) the net spin polarization (nr of electrons spin-A minus spin-B)
 c) for each spin the atomic electron valence density (integrated) per L-value.

 Atom              Charge    Spin density          S         P         D         F
 ----              ------    ------------       ------    ------    ------    ------
 1 H              -0.0000                       1.0000    0.0000    0.0000    0.0000

 Populations of individual BAS functions
 ----------------------------------------
 1 H            0.2104  0.6788  0.1107  0.0000  0.0000  0.0000

 Gross Charges per Atom (Z minus electrons)
 ==========================================
            -0.0000
 Net Total: -0.00000000



 =======================================================================
 Electrostatic potential at the Nuclei due to electrons and other nuclei
 =======================================================================
  
         Atom                  Potential
         ----                  ---------
     1)   H                   0.94468022
 
 
 ========================
 No memory problems found
 ========================
 
 Maximum number of active allocate calls:         306
 
 *******************************************************************************

                             A D F   E X I T
 NORMAL TERMINATION



 =================
 Timing Statistics
 =================
  
 Total Used :                     CPU=        0.34      System=        0.03     Elapsed=        0.40

 Calls  Section                     ( Mean, Percentage )
 ---------------------------------------------------------------------------------------------------
     3  ><      ................      0.00    0.00             0.00   14.29             0.00    1.18
     1  INIT    ................      0.07   19.77             0.00   14.29             0.08   19.00
     1  GEOMET  ................      0.02    4.65             0.00   14.29             0.02    6.22
     1  INPUTA  ................      0.00    0.00             0.00   14.29             0.00    0.89
     1  MAINSY  ................      0.00    1.16             0.00   14.29             0.01    3.34
     1  SYMFIT  ................      0.00    1.16             0.00    0.00             0.00    0.40
     1  CORORT  ................      0.00    0.00             0.00    0.00             0.00    0.33
     1  SYMORB  ................      0.00    0.00             0.00    0.00             0.00    0.18
     1  CLSMAT  ................      0.00    1.16             0.00    0.00             0.01    1.32
     1  ORTHON  ................      0.00    1.16             0.00    0.00             0.01    1.27
     1  GENPT   ................      0.01    3.49             0.00    0.00             0.01    3.24
     1  PTBAS   ................      0.00    1.16             0.00    0.00             0.00    1.18
     8  FOCKY   ................      0.02   51.16             0.00   14.29             0.02   46.07
     8  FOCKTR  ................      0.00    1.16             0.00    0.00             0.00    0.99
     8  SDIIS   ................      0.00    5.81             0.00    0.00             0.00    5.63
     1  COREPS  ................      0.01    3.49             0.00    0.00             0.01    3.75
     1  POPAN   ................      0.00    0.00             0.00   14.29             0.00    1.15
     1  DEBYE   ................      0.00    0.00             0.00    0.00             0.00    0.52
     1  EXIT PROCEDURE .........      0.02    4.65             0.00    0.00             0.01    3.32


 Currently Open Files (EXIT00)
 ====================

 Unit    Access Format  Status   Type       Ident (file)
 -------------------------------------------------------
   3      SEQ    FORM   TRANSP  NORMAL      LOGFILE
                                          ( logfile )

 ***************************************************************************************************
 (LOGFILE)
 <Feb16-2023> <07:49:40>  DIRAC 2019  RunTime: Feb16-2023 07:49:40  Nodes: 1  Procs: 1
 <Feb16-2023> <07:49:40>  NORMAL TERMINATION
 <Feb16-2023> <07:49:40>  END
 <Feb16-2023> <07:49:41>  ADF 2019  RunTime: Feb16-2023 07:49:41  Nodes: 1  Procs: 1
 <Feb16-2023> <07:49:41>  Hydrogen (TZP)
 <Feb16-2023> <07:49:41>  RunType   : CREATE
 <Feb16-2023> <07:49:41>  Net Charge: 0 (Nuclei minus Electrons)
 <Feb16-2023> <07:49:41>  Symmetry  : ATOM
  Coordinates
    Atom         X           Y           Z   (Angstrom)
    1.H         0.000000    0.000000    0.000000
 <Feb16-2023> <07:49:41>  >>>> CORORT
 <Feb16-2023> <07:49:41>  >>>> CLSMAT
 <Feb16-2023> <07:49:41>  >>>> ORTHON
 <Feb16-2023> <07:49:41>  >>>> GENPT
 <Feb16-2023> <07:49:41>  Block Length=  64
 <Feb16-2023> <07:49:41>  >>>> PTBAS
 <Feb16-2023> <07:49:41>  >>>> CYCLE
 <Feb16-2023> <07:49:41>              |Error|         MaxErr       Wt(A-DIIS)
 <Feb16-2023> <07:49:41>      1      0.00000000      0.00000000
 <Feb16-2023> <07:49:41>      2      0.03153787      0.03011049
 <Feb16-2023> <07:49:41>      3      0.00861799      0.00834303    100.0
 <Feb16-2023> <07:49:41>      4      0.00173235      0.00171862      0.7
 <Feb16-2023> <07:49:41>      5      0.00004367      0.00003977      0.0
 <Feb16-2023> <07:49:41>      6      0.00000238      0.00000216      0.0
 <Feb16-2023> <07:49:41>      7      0.00000001      0.00000001      0.0
 <Feb16-2023> <07:49:41>  SCF converged
 <Feb16-2023> <07:49:41>      8      0.00000000      0.00000000      0.0
 <Feb16-2023> <07:49:41>  >>>> POPAN
 <Feb16-2023> <07:49:41>  >>>> DEBYE
 <Feb16-2023> <07:49:41>  NORMAL TERMINATION
 <Feb16-2023> <07:49:41>  END

 *******************************************************************************
 *                                                                             *
 *  -------------------------------------                                      *
 *   Amsterdam Density Functional  (ADF)         2019                          *
 *  -------------------------------------                                      *
 *                                               r74351 2019-04-25             *
 *                                                                             *
 *                                                                             *
 *                            =====================                            *
 *                            |                   |                            *
 *                            |     D I R A C     |                            *
 *                            |                   |                            *
 *                            =====================                            *
 *                                                                             *
 *                                                                             *
 *   Online information and documentation:  https://www.scm.com/support/       *
 *   E-mail:  support@scm.com   info@scm.com                                   *
 *                                                                             *
 *   Scientific publications using ADF results must be properly referenced     *
 *   See the User Manuals (or the web site) for recommended citations          *
 *   The terms and conditions of the End User License Agreement apply to       *
 *   the use of ADF, https://www.scm.com/license-terms/                        *
 *                                                                             *
 **********************  x86_64_linux_intel / intelmpi  ************************
 
 Licensed to: Dr. Carles Bo / Institute of Chemical Research of Catalonia ( (ICIQ) / Tarragona / Spain 2022-11-28 14:37:29
 SCM User ID: u7609
  
 DIRAC 2019  RunTime: Feb16-2023 07:49:41  Nodes: 1  Procs: 1

 Temporary files are created in /scratch/kid_0.259826991

1
 PHOSPHORUS ATOM 1s CORE RELATIVISTIC, Point Nuc, A and c fro
 N J RN H ZN XION ANUC CLIGHT
 5000    7100.00000000197.36710137 15.00000000  0.00000000   30.973761  0.1370360E+03
  PH   PHI     EPS        DEL        DELRVR
  0.30  0.30     2500.00  0.00001000  0.00001000
 IDIRC  NC1  NDEBU NPRIN  IPUN IRCOR IWCOR
   1   300     0     0     0     0     1
   XALPHA      XLATTER      RNUC
  0.70000000  0.00000000  0.00000000 Point Charge
   XN   XL   XJ      XE          XZ      XDELL
  1.0  0.0  0.5    -600.000       2.000     0.00000
  2.0  0.0  0.5     -75.000       2.000     0.00000
  2.0  1.0  0.5     -70.000       2.000     0.00000
  2.0  1.0  1.5     -70.000       4.000     0.00000
  3.0  0.0  0.5     -25.000       2.000     0.00000
  3.0  1.0  0.5      -0.250       2.000     0.00000
  3.0  1.0  1.5      -0.250       1.000     0.00000
 ICORP=  0  NPCL=  0  DEMP=0.00  PEPS=0.000000
 R(1)=  0.1000000E-08 D=  0.1005080E+01 RNUC=  0.0000000E+00
 converged at cycle   47  DENSITY AVERAGING    0.3000
  MAXIMUM ERROR IN R.V(R) IS   0.93255186E-05
 Q,EY,EV,EZ,ESUM,ETOT,RHO  0.150000E+02 -0.290161E+02 -0.536820E+03 -0.814855E+03 -0.194417E+03 -0.340688E+03  0.340722E-13


 DIRAC CALCULATION
1                    PHOSPHORUS ATOM 1s CORE RELATIVISTIC, Point Nuc, A and c from libtc


 EXCHANGE COEFFICIENT=  0.7000000           TAIL CORRECTION=  0.           NUCLEAR RADIUS=  0.000E+00
0                       ORBITAL    N    L    J     ELECTRONS     EIGENVALUE                DELTA OF EIGENV.

                          1S1/2  1.0  0.0  0.5     2.000       -0.7640874E+02                 0.2597240E-06
                          2S1/2  2.0  0.0  0.5     2.000       -0.6353640E+01                 0.3482713E-07
                          2P1/2  2.0  1.0  0.5     2.000       -0.4588256E+01                 0.3010938E-07
                          2P3/2  2.0  1.0  1.5     4.000       -0.4554413E+01                 0.2993762E-07
                          3S1/2  3.0  0.0  0.5     2.000       -0.4844206E+00                 0.1693624E-07
                          3P1/2  3.0  1.0  0.5     2.000       -0.1770291E+00                 0.1234259E-07
                          3P3/2  3.0  1.0  1.5     1.000       -0.1750217E+00                 0.1224459E-07


                                        NUCLEAR CHARGE=   15.000000
                            INTEGRAL OF CHARGE DENSITY=   15.000000
                           SUM OF THE ORBITAL ENERGIES=   -194.4169
                                          TOTAL ENERGY=   -340.6884
                                        KINETIC ENERGY=    342.4034
                             NUCLEAR ATTRACTION ENERGY=   -814.8554
                             ELECTRON REPULSION ENERGY=    153.5256
                                       EXCHANGE ENERGY=    -21.7621

 *******************************************************************************

                             D I R A C   E X I T
 NORMAL TERMINATION



 =================
 Timing Statistics
 =================
  
 Total Used :                     CPU=        0.28      System=        0.00     Elapsed=        0.28

 Calls  Section                     ( Mean, Percentage )
 ---------------------------------------------------------------------------------------------------
     2  ><      ................      0.00    0.00             0.00    0.00             0.00    0.00
     1  EXIT PROCEDURE .........      0.28  100.00             0.00    0.00             0.28  100.00


 Currently Open Files (EXIT00)
 ====================

 Unit    Access Format  Status   Type       Ident (file)
 -------------------------------------------------------
   3      SEQ    FORM   TRANSP  NORMAL      LOGFILE
                                          ( logfile )
 
Create P   file=TZP-P.1s
XC
  GGA PBE
End
relativistic ZORA
Corepotentials t12.rel
End

 *******************************************************************************
 *                                                                             *
 *  -------------------------------------                                      *
 *   Amsterdam Density Functional  (ADF)         2019                          *
 *  -------------------------------------                                      *
 *                                               r74351 2019-04-25             *
 *                                                                             *
 *                                                                             *
 *                              =================                              *
 *                              |               |                              *
 *                              |     A D F     |                              *
 *                              |               |                              *
 *                              =================                              *
 *                                                                             *
 *                                                                             *
 *   Online information and documentation:  https://www.scm.com/support/       *
 *   E-mail:  support@scm.com   info@scm.com                                   *
 *                                                                             *
 *   Scientific publications using ADF results must be properly referenced     *
 *   See the User Manuals (or the web site) for recommended citations          *
 *   The terms and conditions of the End User License Agreement apply to       *
 *   the use of ADF, https://www.scm.com/license-terms/                        *
 *                                                                             *
 **********************  x86_64_linux_intel / intelmpi  ************************
 
 Licensed to: Dr. Carles Bo / Institute of Chemical Research of Catalonia ( (ICIQ) / Tarragona / Spain 2022-11-28 14:37:29
 SCM User ID: u7609
  
 ADF 2019  RunTime: Feb16-2023 07:49:41  Nodes: 1  Procs: 1

 Temporary files are created in /scratch/kid_0.1737696647

 Phosphorus (TZP, 1s frozen)



 ===========================
 A T T A C H E D   F I L E S
 ===========================
  
 CREATE - Data File:    TZP-P.1s
                        Phosphorus (TZP, 1s frozen)
 Core Potentials:
         file : t12.rel



 ===============================
 M O D E L   P A R A M E T E R S
 ===============================
  
 DENSITY FUNCTIONAL POTENTIAL (scf)
    LDA:                               PW92                                    == Not Default ==
    Gradient Corrections:              PBEc PBEx                               == Not Default ==

 SPIN  (restricted / unrestr.)
    Molecule:                          Restricted                               

 OTHER ASPECTS
    Relativistic Corrections:          scalar (ZORA,MAPA)                      == Not Default ==

    Nuclear Charge Density Model:      Point Charge Nuclei                      
    Core Treatment:                    Frozen Orbital(s)                        

    Hyperfine or Zeeman Interaction:   ---                                      



 =====================================
 S Y M M E T R Y ,   E L E C T R O N S
 =====================================
  
 Symmetry: ATOM

 Irreducible Representations, including subspecies
 -------------------------------------------------
 S
 P:x  P:y  P:z
 D:z2  D:x2-y2  D:xy  D:xz  D:yz
 F:z3  F:z  F:xyz  F:z2x  F:z2y  F:x  F:y


 Configuration of Valence Electrons
 ==================================

          Occupation Numbers
          -------------------------------------------------
 S        2*2
 P        6 3
 D        0
 F        0
          -------------------------------------------------

 Total:   13

 Net Charge: 0 (Nuclei minus Electrons)

 Preset values for MO occupations will be applied through SCF cycle no. 1000000
 Thereafter, the program will assign electrons to MOs that are spatially
 similar to the occupied MOs in a "reference" cycle ("KeepOrbitals").
 The reference cycle is always the PREVIOUS cycle: it will evolve with
 the SCF procedure.



 ================================
 (Slater-type)  F U N C T I O N S  ***  (Basis and Fit)  ***
 ================================
  

 Atom Type    1  (P)
 ==============

 Valence Basis Sets:  12
 -----------------------
   1 S   12.550000
   2 S    5.600000
   2 S    4.050000
   2 P    7.450000
   2 P    4.100000
   3 S    1.300000
   3 S    1.850000
   3 S    2.650000
   3 P    0.850000
   3 P    1.300000
   3 P    2.050000
   3 D    1.900000

 Frozen Core Shells
 ------------------
    S:  1


 BAS: List of all Elementary Cartesian Basis Functions
 =====================================================

 The numbering in the list below (to the right of the function characteristics) is referred
 to in print-outs of MO eigenvectors and Mulliken populations in the BAS representation
 (as contrasted to the SFO representation).

 Notes:
 1. The functions are characterized by a polynomial prefactor (powers of x,y,z and r) and
    an exponential decay factor alpha.
 2. Since the basis sets are specific for an atom TYPE, the individual functions occur on
    all atoms of that type.
 3. The word 'Core' in the left margin signals that it is a Core Function (CF) : not a
    degree of freedom in the valence set, but only used to ensure orthogonalization of
    the other valence basis functions on the frozen Core Orbitals.


 (power of) X  Y  Z  R     Alpha  on Atom
            ==========     =====     ==========

 P                                    1
                                  ---------------------------------------------------------------------------
    Core    0  0  0  0    12.550      1
            0  0  0  1     5.600      2
            0  0  0  1     4.050      3
            1  0  0  0     7.450      4
            0  1  0  0     7.450      5
            0  0  1  0     7.450      6
            1  0  0  0     4.100      7
            0  1  0  0     4.100      8
            0  0  1  0     4.100      9
            0  0  0  2     1.300     10
            0  0  0  2     1.850     11
            0  0  0  2     2.650     12
            1  0  0  1     0.850     13
            0  1  0  1     0.850     14
            0  0  1  1     0.850     15
            1  0  0  1     1.300     16
            0  1  0  1     1.300     17
            0  0  1  1     1.300     18
            1  0  0  1     2.050     19
            0  1  0  1     2.050     20
            0  0  1  1     2.050     21
            2  0  0  0     1.900     22
            1  1  0  0     1.900     23
            1  0  1  0     1.900     24
            0  2  0  0     1.900     25
            0  1  1  0     1.900     26
            0  0  2  0     1.900     27

 Total number of charge fitting functions (nprimf)       106
 Total number of Cartesian basis functions (naos)         27
 Total number of Cartesian core functions  (ncos)          1



 BAS: List of all Elementary Cartesian Basis Functions
 =====================================================

 The numbering in the list below (to the right of the function characteristics) is referred
 to in print-outs of MO eigenvectors and Mulliken populations in the BAS representation
 (as contrasted to the SFO representation).

 Notes:
 1. The functions are characterized by a polynomial prefactor (powers of x,y,z and r) and
    an exponential decay factor alpha.
 2. Since the basis sets are specific for an atom TYPE, the individual functions occur on
    all atoms of that type.
 3. The word 'Core' in the left margin signals that it is a Core Function (CF) : not a
    degree of freedom in the valence set, but only used to ensure orthogonalization of
    the other valence basis functions on the frozen Core Orbitals.


 (power of) X  Y  Z  R     Alpha  on Atom
            ==========     =====     ==========

 P                                    1
                                  ---------------------------------------------------------------------------
    Core    0  0  0  0    12.550      1
            0  0  0  1     5.600      2
            0  0  0  1     4.050      3
            1  0  0  0     7.450      4
            0  1  0  0     7.450      5
            0  0  1  0     7.450      6
            1  0  0  0     4.100      7
            0  1  0  0     4.100      8
            0  0  1  0     4.100      9
            0  0  0  2     1.300     10
            0  0  0  2     1.850     11
            0  0  0  2     2.650     12
            1  0  0  1     0.850     13
            0  1  0  1     0.850     14
            0  0  1  1     0.850     15
            1  0  0  1     1.300     16
            0  1  0  1     1.300     17
            0  0  1  1     1.300     18
            1  0  0  1     2.050     19
            0  1  0  1     2.050     20
            0  0  1  1     2.050     21
            2  0  0  0     1.900     22
            1  1  0  0     1.900     23
            1  0  1  0     1.900     24
            0  2  0  0     1.900     25
            0  1  1  0     1.900     26
            0  0  2  0     1.900     27
1
 ***************************************************************************************************



                                              ***********************
                                              *  T E C H N I C A L  *
                                              ***********************
  



 =============================================================
 P A R A L L E L I Z A T I O N  and  V E C T O R I Z A T I O N
 =============================================================
  
 Nr of parallel processes:                                1
 Maximum vector length in NumInt loops:                 128



 =====================
 S C F   U P D A T E S
 =====================
  
 Max. nr. of cycles:                               300
 Convergence criterion:                              0.0000000100
   secondary criterion:                              0.0000000100

 Mix parameter (when DIIS does not apply):           0.2000000000
 Special mix parameter for the first cycle:          1.0000000000
 Mixed ADIIS+SDIIS will be used                  
    Max number of expansion vectors:                10
    Pure ADIIS when Max([F,P]) is above              0.1000000000
    Pure SDIIS when Max([F,P]) is below              0.0010000000
 Automatic ElectronSmearing (in case of problematic SCF convergence) disabled



 =================
 P R E C I S I O N  ***  (General: NumInt, NeglectFunctionTails, ...)  ***
 =================
  

 NumInt:           Target precision:                12.0000000000
 -------           Initial precision:               10.0000000000
                   Min. precision (optimization):   10.0000000000

 Neglect Functions:          Basis functions:        0.1000000000E-13
 ------------------          Fit functions:          0.1000000000E-13



 ===========================
 L I N E A R   S C A L I N G
 ===========================
  

 Cut-off radii density fit:                        0.1000000000E-97
 Overlap cut-off criterion AO matrix elements:     0.1000000000E-97
 Cut-offs for Coulomb potential and fitted density:0.1000000000E-97
 Cut-off criterion for Coulomb multipole terms:    0.1000000000E-97
 Progressive Convergence parameter:                 0.000000000    
1
 ***************************************************************************************************



                                            ***************************
                                            *  C O M P U T A T I O N  *
                                            ***************************
  

 Number of elements of the density matrix on this node (used, total):       378       378



 ===========================================
 Numerical Integration : Fuzzy Cells (Becke)
 ===========================================
  
 Becke grid quality: VERYGOOD       
  
 Lebedev angular grid order:             min:  13 max:  41
 Nr. of radial points:                   min:  76 max:  76

 Total nr. of points:         76
 Nr. of blocks:                1
 Block length:                76
 Nr. of dummy points:          0


 Test of Precision of the Numerical Integration Grid
 ===================================================

 Integral of the Total Core Density:                   1.99999999908170
 Relative Error:                                      -4.592E-10



 ========================
 Density Fitting (zlmFit)
 ========================
  
 ZlmFit Fit Quality: VERYGOOD       
  
 Max L-expansion:                        min:   0 max:   0
 Nr. of radial interpolation points:     min: 190 max: 190



 =====
 S C F  ***  ScaSCF  ***
 =====
  

 CYCLE    1
 SCF Error: norm([F,P])=      0.000000000000, max([F,P])=      0.000000000000
 orbitals (Q,E):
 ---------------
 S :1...5            ( 2.00   -23.0992)  ( 2.00    -9.8031)  ( 0.00    -5.2886)  ( 0.00    -3.1440)
                     ( 0.00    -1.2993)
 P :1...5            ( 6.00   -22.3278)  ( 3.00    -9.2322)  ( 0.00    -4.8937)  ( 0.00    -3.0142)
                     ( 0.00    -1.9614)
 D :1...1            ( 0.00    -6.4318)

 CYCLE    2
  SDIIS (wt  0.000):  1.0000  0.0000
 A-DIIS (wt  1.000):  0.1145  0.8855
  DIIS coefficients:  0.1145  0.8855
 SCF Error: norm([F,P])=     18.574199763001, max([F,P])=      5.729460424591
 orbitals (Q,E):
 ---------------
 S :1...3            ( 2.00    -4.5689)  ( 2.00    -0.5693)  ( 0.00    -0.0589)
 P :1...3            ( 6.00    -2.5820)  ( 3.00    -0.3376)  ( 0.00    -0.0879)
 D :1...1            ( 0.00     0.3219)

 CYCLE    3
  SDIIS (wt  0.000):  0.2387  0.7613
 A-DIIS (wt  1.000):  0.0000  1.0000
  DIIS coefficients:  0.0000  1.0000
 SCF Error: norm([F,P])=      7.892246338364, max([F,P])=      2.592954182835
 orbitals (Q,E):
 ---------------
 S :1...3            ( 2.00    -8.2146)  ( 2.00    -0.9843)  ( 0.00    -0.0433)
 P :1...3            ( 6.00    -6.5635)  ( 3.00    -0.6019)  ( 0.00    -0.0049)
 D :1...1            ( 0.00    -0.0107)

 CYCLE    4
  SDIIS (wt  0.000): -0.0871  0.2952  0.7919
 A-DIIS (wt  1.000):  0.0000  0.1757  0.8243
  DIIS coefficients:  0.0000  0.1757  0.8243
 SCF Error: norm([F,P])=      4.387176641077, max([F,P])=      1.761626650861
 orbitals (Q,E):
 ---------------
 S :1...3            ( 2.00    -5.8126)  ( 2.00    -0.3504)  ( 0.00     0.1791)
 P :1...3            ( 6.00    -3.9508)  ( 3.00    -0.0835)  ( 0.00     0.1310)
 D :1...1            ( 0.00     0.5508)

 CYCLE    5
  SDIIS (wt  0.000): -0.0109 -0.0602  0.1941  0.8770
 A-DIIS (wt  1.000):  0.0000  0.0000  0.0000  1.0000
  DIIS coefficients:  0.0000  0.0000  0.0000  1.0000
 SCF Error: norm([F,P])=      1.324345584458, max([F,P])=      0.466956153840
 orbitals (Q,E):
 ---------------
 S :1...3            ( 2.00    -6.8907)  ( 2.00    -0.7073)  ( 0.00     0.0342)
 P :1...3            ( 6.00    -5.0922)  ( 3.00    -0.3650)  ( 0.00     0.0330)
 D :1...1            ( 0.00     0.1959)

 CYCLE    6
  SDIIS (wt  0.000):  0.0000 -0.0289 -0.0346  0.4584  0.6050
 A-DIIS (wt  1.000):  0.0000  0.0000  0.0000  0.3111  0.6889
  DIIS coefficients:  0.0000  0.0000  0.0000  0.3111  0.6889
 SCF Error: norm([F,P])=      0.894656609953, max([F,P])=      0.328552344502
 orbitals (Q,E):
 ---------------
 S :1...3            ( 2.00    -6.3109)  ( 2.00    -0.4896)  ( 0.00     0.1210)
 P :1...3            ( 6.00    -4.4823)  ( 3.00    -0.1842)  ( 0.00     0.0870)
 D :1...1            ( 0.00     0.4072)

 CYCLE    7
  SDIIS (wt  0.437):  0.0003 -0.0004 -0.0106 -0.0415  0.1385  0.9137
 A-DIIS (wt  0.563):  0.0000  0.0000  0.0000  0.0000  0.0000  1.0000
  DIIS coefficients:  0.0001 -0.0002 -0.0046 -0.0181  0.0605  0.9623
 SCF Error: norm([F,P])=      0.152753231532, max([F,P])=      0.056768903175
 orbitals (Q,E):
 ---------------
 S :1...3            ( 2.00    -6.4268)  ( 2.00    -0.5264)  ( 0.00     0.1084)
 P :1...3            ( 6.00    -4.6039)  ( 3.00    -0.2126)  ( 0.00     0.0772)
 D :1...1            ( 0.00     0.3702)

 CYCLE    8
  SDIIS (wt  0.777): -0.0000 -0.0007  0.0025  0.0136 -0.0400  0.1180  0.9067
 A-DIIS (wt  0.223):  0.0000  0.0000  0.0000  0.0000  0.0000  0.0410  0.9590
  DIIS coefficients: -0.0000 -0.0005  0.0019  0.0105 -0.0311  0.1008  0.9184
 SCF Error: norm([F,P])=      0.062117061218, max([F,P])=      0.023065151090
 orbitals (Q,E):
 ---------------
 S :1...3            ( 2.00    -6.3871)  ( 2.00    -0.5116)  ( 0.00     0.1144)
 P :1...3            ( 6.00    -4.5623)  ( 3.00    -0.2008)  ( 0.00     0.0809)
 D :1...1            ( 0.00     0.3849)

 CYCLE    9
  SDIIS (wt  0.976):  0.0000  0.0000 -0.0001 -0.0000 -0.0006  0.0067  0.1535  0.8406
 A-DIIS (wt  0.024):  0.0000  0.0000  0.0000  0.0000  0.0000  0.0000  0.0000  1.0000
  DIIS coefficients:  0.0000  0.0000 -0.0001 -0.0000 -0.0006  0.0065  0.1498  0.8445
 SCF Error: norm([F,P])=      0.008957667695, max([F,P])=      0.003406470825
 orbitals (Q,E):
 ---------------
 S :1...3            ( 2.00    -6.3923)  ( 2.00    -0.5136)  ( 0.00     0.1136)
 P :1...3            ( 6.00    -4.5677)  ( 3.00    -0.2024)  ( 0.00     0.0804)
 D :1...1            ( 0.00     0.3830)

 CYCLE   10
  SDIIS (wt  1.000): -0.0000  0.0000 -0.0000 -0.0000  0.0000  0.0002  0.0031  0.0372  0.9595
  DIIS coefficients: -0.0000  0.0000 -0.0000 -0.0000  0.0000  0.0002  0.0031  0.0372  0.9595
 SCF Error: norm([F,P])=      0.000163653333, max([F,P])=      0.000063717608
 orbitals (Q,E):
 ---------------
 S :1...3            ( 2.00    -6.3922)  ( 2.00    -0.5136)  ( 0.00     0.1136)
 P :1...3            ( 6.00    -4.5676)  ( 3.00    -0.2024)  ( 0.00     0.0804)
 D :1...1            ( 0.00     0.3830)

 CYCLE   11
  SDIIS (wt  1.000):  0.0000  0.0000 -0.0000 -0.0002 -0.0016 -0.0226  1.0244
  DIIS coefficients:  0.0000  0.0000 -0.0000 -0.0002 -0.0016 -0.0226  1.0244
 SCF Error: norm([F,P])=      0.000000175567, max([F,P])=      0.000000090743
 orbitals (Q,E):
 ---------------
 S :1...3            ( 2.00    -6.3922)  ( 2.00    -0.5136)  ( 0.00     0.1136)
 P :1...3            ( 6.00    -4.5676)  ( 3.00    -0.2024)  ( 0.00     0.0804)
 D :1...1            ( 0.00     0.3830)

 CYCLE   12
  SDIIS (wt  1.000): -0.0000 -0.0000 -0.0005 -0.0247  1.0252
  DIIS coefficients: -0.0000 -0.0000 -0.0005 -0.0247  1.0252
 SCF Error: norm([F,P])=      0.000000002285, max([F,P])=      0.000000001028
 orbitals (Q,E):
 ---------------
 S :1...3            ( 2.00    -6.3922)  ( 2.00    -0.5136)  ( 0.00     0.1136)
 P :1...3            ( 6.00    -4.5676)  ( 3.00    -0.2024)  ( 0.00     0.0804)
 D :1...1            ( 0.00     0.3830)

 SCF CONVERGED

 CYCLE   13
1
 ***************************************************************************************************



                                                *******************
                                                *  R E S U L T S  *
                                                *******************
  
 *** Using FIT density in Focky
  SDIIS (wt  1.000):  0.0000  0.0017  0.0326  0.9657
  DIIS coefficients:  0.0000  0.0017  0.0326  0.9657
 SCF Error: norm([F,P])=      0.000000000342, max([F,P])=      0.000000000172

 Scaled ZORA Orbital Energies, per Irrep and Spin:
 =================================================
                        Occup              E (au)              E (eV)       Diff (eV) with prev. cycle
                        -----      --------------------        ------       --------------------------
 S
               1        2.000     -0.63922369009056E+01      -173.942               8.75E-09
               2        2.000     -0.51357095789531E+00       -13.975               6.90E-09
               3        0.000      0.11360419341918E+00         3.091
               4        0.000      0.13218598554508E+01        35.970
               5        0.000      0.10430275582036E+02       283.822
 P
               1        6.000     -0.45676340295409E+01      -124.292               8.74E-09
               2        3.000     -0.20235270966723E+00        -5.506               5.88E-09
               3        0.000      0.80400995303665E-01         2.188
               4        0.000      0.71612464912880E+00        19.487
               5        0.000      0.95392466931961E+01       259.576
 D
               1        0.000      0.38299165710671E+00        10.422


 Partially Occupied:
               2 P                -0.20235270966723E+00
  
 HOMO :        2 S                -0.51357095789531E+00
 LUMO :        3 P                 0.80400995303665E-01
  


 Orbital Energies, all Irreps
 ========================================

 Irrep        no.  (spin)   Occup              E (au)                E (eV)
 ---------------------------------------------------------------------------
 S             1             2.00       -0.63922369009056E+01      -173.9416
 P             1             6.00       -0.45676340295409E+01      -124.2916
 S             2             2.00       -0.51357095789531E+00       -13.9750
 P             2             3.00       -0.20235270966723E+00        -5.5063
 P             3             0.00        0.80400995303665E-01         2.1878
 S             3             0.00        0.11360419341918E+00         3.0913
 D             1             0.00        0.38299165710671E+00        10.4217
 P             4             0.00        0.71612464912880E+00        19.4867
 S             4             0.00        0.13218598554508E+01        35.9696
 P             5             0.00        0.95392466931961E+01       259.5761
 S             5             0.00        0.10430275582036E+02       283.8222


 Scaled ZORA Orbital Energies of the Core Orbitals:
 ==================================================

 (Note that the atoms are grouped by atomtype, see the labels, and may hence NOT be in input order)

 AtomType  Orbital  Atom                   E (au)                        E (eV)
 --------  -------  ----           --------------------        ----------------
 P           1S        1          -0.76588588395026E+02               -2084.082



 =======================================
 M U L L I K E N   P O P U L A T I O N S
 =======================================
  
 The survey below gives for each atom:
 a) the total charge (Z minus electrons)
 b) the net spin polarization (nr of electrons spin-A minus spin-B)
 c) for each spin the atomic electron valence density (integrated) per L-value.

 Atom              Charge    Spin density          S         P         D         F
 ----              ------    ------------       ------    ------    ------    ------
 1 P              -0.0000                       4.0000    9.0000    0.0000    0.0000

 Populations of individual BAS functions
 ----------------------------------------
 1 P           -0.0481  1.4990  0.5077  0.7973  0.7973  0.7973  1.2052  1.2052  1.2052  0.3372
                1.0986  0.6057  0.1369  0.1369  0.1369  0.4144  0.4144  0.4144  0.4462  0.4462
                0.4462  0.0000  0.0000  0.0000  0.0000  0.0000  0.0000

 Gross Charges per Atom (Z minus electrons)
 ==========================================
            -0.0000
 Net Total: -0.00000000



 =======================================================================
 Electrostatic potential at the Nuclei due to electrons and other nuclei
 =======================================================================
  
         Atom                  Potential
         ----                  ---------
     1)   P                  54.30955117
 
 
 ========================
 No memory problems found
 ========================
 
 Maximum number of active allocate calls:         389
 
 *******************************************************************************

                             A D F   E X I T
 NORMAL TERMINATION



 =================
 Timing Statistics
 =================
  
 Total Used :                     CPU=        0.58      System=        0.03     Elapsed=        0.65

 Calls  Section                     ( Mean, Percentage )
 ---------------------------------------------------------------------------------------------------
     3  ><      ................      0.00    0.68             0.00    0.00             0.00    0.64
     1  INIT    ................      0.07   11.64             0.00   12.50             0.08   11.56
     1  GEOMET  ................      0.01    2.05             0.01   25.00             0.03    3.87
     1  INPUTA  ................      0.00    0.00             0.00    0.00             0.00    0.55
     1  MAINSY  ................      0.01    1.37             0.00   12.50             0.01    2.27
     1  SYMFIT  ................      0.00    0.69             0.00    0.00             0.00    0.25
     1  CORORT  ................      0.00    0.00             0.00    0.00             0.00    0.24
     1  SYMORB  ................      0.00    0.00             0.00    0.00             0.00    0.14
     1  CLSMAT  ................      0.01    1.37             0.00    0.00             0.01    0.88
     1  ORTHON  ................      0.00    0.68             0.00    0.00             0.01    0.87
     1  GENPT   ................      0.02    2.74             0.00    0.00             0.02    2.93
     1  PTBAS   ................      0.01    1.37             0.00    0.00             0.01    0.80
    13  FOCKY   ................      0.03   63.70             0.00   37.50             0.03   60.98
    13  FOCKTR  ................      0.00    1.37             0.00    0.00             0.00    1.18
    13  SDIIS   ................      0.00    4.79             0.00   12.50             0.00    5.80
     1  COREPS  ................      0.02    4.11             0.00    0.00             0.02    3.76
     1  POPAN   ................      0.00    0.68             0.00    0.00             0.01    0.79
     1  DEBYE   ................      0.00    0.68             0.00    0.00             0.00    0.31
     1  EXIT PROCEDURE .........      0.01    2.05             0.00    0.00             0.01    2.19


 Currently Open Files (EXIT00)
 ====================

 Unit    Access Format  Status   Type       Ident (file)
 -------------------------------------------------------
   3      SEQ    FORM   TRANSP  NORMAL      LOGFILE
                                          ( logfile )

 ***************************************************************************************************
 (LOGFILE)
 <Feb16-2023> <07:49:40>  DIRAC 2019  RunTime: Feb16-2023 07:49:40  Nodes: 1  Procs: 1
 <Feb16-2023> <07:49:40>  NORMAL TERMINATION
 <Feb16-2023> <07:49:40>  END
 <Feb16-2023> <07:49:41>  ADF 2019  RunTime: Feb16-2023 07:49:41  Nodes: 1  Procs: 1
 <Feb16-2023> <07:49:41>  Hydrogen (TZP)
 <Feb16-2023> <07:49:41>  RunType   : CREATE
 <Feb16-2023> <07:49:41>  Net Charge: 0 (Nuclei minus Electrons)
 <Feb16-2023> <07:49:41>  Symmetry  : ATOM
  Coordinates
    Atom         X           Y           Z   (Angstrom)
    1.H         0.000000    0.000000    0.000000
 <Feb16-2023> <07:49:41>  >>>> CORORT
 <Feb16-2023> <07:49:41>  >>>> CLSMAT
 <Feb16-2023> <07:49:41>  >>>> ORTHON
 <Feb16-2023> <07:49:41>  >>>> GENPT
 <Feb16-2023> <07:49:41>  Block Length=  64
 <Feb16-2023> <07:49:41>  >>>> PTBAS
 <Feb16-2023> <07:49:41>  >>>> CYCLE
 <Feb16-2023> <07:49:41>              |Error|         MaxErr       Wt(A-DIIS)
 <Feb16-2023> <07:49:41>      1      0.00000000      0.00000000
 <Feb16-2023> <07:49:41>      2      0.03153787      0.03011049
 <Feb16-2023> <07:49:41>      3      0.00861799      0.00834303    100.0
 <Feb16-2023> <07:49:41>      4      0.00173235      0.00171862      0.7
 <Feb16-2023> <07:49:41>      5      0.00004367      0.00003977      0.0
 <Feb16-2023> <07:49:41>      6      0.00000238      0.00000216      0.0
 <Feb16-2023> <07:49:41>      7      0.00000001      0.00000001      0.0
 <Feb16-2023> <07:49:41>  SCF converged
 <Feb16-2023> <07:49:41>      8      0.00000000      0.00000000      0.0
 <Feb16-2023> <07:49:41>  >>>> POPAN
 <Feb16-2023> <07:49:41>  >>>> DEBYE
 <Feb16-2023> <07:49:41>  NORMAL TERMINATION
 <Feb16-2023> <07:49:41>  END
 <Feb16-2023> <07:49:41>  DIRAC 2019  RunTime: Feb16-2023 07:49:41  Nodes: 1  Procs: 1
 <Feb16-2023> <07:49:41>  NORMAL TERMINATION
 <Feb16-2023> <07:49:41>  END
 <Feb16-2023> <07:49:41>  ADF 2019  RunTime: Feb16-2023 07:49:41  Nodes: 1  Procs: 1
 <Feb16-2023> <07:49:41>  Phosphorus (TZP, 1s frozen)
 <Feb16-2023> <07:49:41>  RunType   : CREATE
 <Feb16-2023> <07:49:41>  Net Charge: 0 (Nuclei minus Electrons)
 <Feb16-2023> <07:49:41>  Symmetry  : ATOM
  Coordinates
    Atom         X           Y           Z   (Angstrom)
    1.P         0.000000    0.000000    0.000000
 <Feb16-2023> <07:49:41>  >>>> CORORT
 <Feb16-2023> <07:49:41>  >>>> CLSMAT
 <Feb16-2023> <07:49:41>  >>>> ORTHON
 <Feb16-2023> <07:49:41>  >>>> GENPT
 <Feb16-2023> <07:49:41>  Block Length=  76
 <Feb16-2023> <07:49:41>  >>>> PTBAS
 <Feb16-2023> <07:49:41>  >>>> CYCLE
 <Feb16-2023> <07:49:42>              |Error|         MaxErr       Wt(A-DIIS)
 <Feb16-2023> <07:49:42>      1      0.00000000      0.00000000
 <Feb16-2023> <07:49:42>      2     18.57419976      5.72946042    100.0
 <Feb16-2023> <07:49:42>      3      7.89224634      2.59295418    100.0
 <Feb16-2023> <07:49:42>      4      4.38717664      1.76162665    100.0
 <Feb16-2023> <07:49:42>      5      1.32434558      0.46695615    100.0
 <Feb16-2023> <07:49:42>      6      0.89465661      0.32855234    100.0
 <Feb16-2023> <07:49:42>      7      0.15275323      0.05676890     56.3
 <Feb16-2023> <07:49:42>      8      0.06211706      0.02306515     22.3
 <Feb16-2023> <07:49:42>      9      0.00895767      0.00340647      2.4
 <Feb16-2023> <07:49:42>     10      0.00016365      0.00006372      0.0
 <Feb16-2023> <07:49:42>     11      0.00000018      0.00000009      0.0
 <Feb16-2023> <07:49:42>     12      0.00000000      0.00000000      0.0
 <Feb16-2023> <07:49:42>  SCF converged
 <Feb16-2023> <07:49:42>     13      0.00000000      0.00000000      0.0
 <Feb16-2023> <07:49:42>  >>>> POPAN
 <Feb16-2023> <07:49:42>  >>>> DEBYE
 <Feb16-2023> <07:49:42>  NORMAL TERMINATION
 <Feb16-2023> <07:49:42>  END

 *******************************************************************************
 *                                                                             *
 *  -------------------------------------                                      *
 *   Amsterdam Density Functional  (ADF)         2019                          *
 *  -------------------------------------                                      *
 *                                               r74351 2019-04-25             *
 *                                                                             *
 *                                                                             *
 *                            =====================                            *
 *                            |                   |                            *
 *                            |     D I R A C     |                            *
 *                            |                   |                            *
 *                            =====================                            *
 *                                                                             *
 *                                                                             *
 *   Online information and documentation:  https://www.scm.com/support/       *
 *   E-mail:  support@scm.com   info@scm.com                                   *
 *                                                                             *
 *   Scientific publications using ADF results must be properly referenced     *
 *   See the User Manuals (or the web site) for recommended citations          *
 *   The terms and conditions of the End User License Agreement apply to       *
 *   the use of ADF, https://www.scm.com/license-terms/                        *
 *                                                                             *
 **********************  x86_64_linux_intel / intelmpi  ************************
 
 Licensed to: Dr. Carles Bo / Institute of Chemical Research of Catalonia ( (ICIQ) / Tarragona / Spain 2022-11-28 14:37:29
 SCM User ID: u7609
  
 DIRAC 2019  RunTime: Feb16-2023 07:49:42  Nodes: 1  Procs: 1

 Temporary files are created in /scratch/kid_0.124200858

1
 MOLYBDENUM ATOM 3d CORE RELATIVISTIC, Point Nuc, A and c fro
 N J RN H ZN XION ANUC CLIGHT
 5000   15100.00000000197.36710137 42.00000000  0.00000000   97.905406  0.1370360E+03
  PH   PHI     EPS        DEL        DELRVR
  0.30  0.30     2500.00  0.00001000  0.00001000
 IDIRC  NC1  NDEBU NPRIN  IPUN IRCOR IWCOR
   1   300     0     0     0     0     9
   XALPHA      XLATTER      RNUC
  0.70000000  0.00000000  0.00000000 Point Charge
   XN   XL   XJ      XE          XZ      XDELL
  1.0  0.0  0.5   -1500.000       2.000     0.00000
  2.0  0.0  0.5    -325.000       2.000     0.00000
  2.0  1.0  0.5    -325.000       2.000     0.00000
  2.0  1.0  1.5    -325.000       4.000     0.00000
  3.0  0.0  0.5     -70.000       2.000     0.00000
  3.0  1.0  0.5     -70.000       2.000     0.00000
  3.0  1.0  1.5     -70.000       4.000     0.00000
  3.0  2.0  1.5     -60.000       4.000     0.00000
  3.0  2.0  2.5     -60.000       6.000     0.00000
  4.0  0.0  0.5     -10.000       2.000     0.00000
  4.0  1.0  0.5     -10.000       2.000     0.00000
  4.0  1.0  1.5     -10.000       4.000     0.00000
  4.0  2.0  1.5      -1.000       4.000     0.00000
  4.0  2.0  2.5      -1.000       1.000     0.00000
  5.0  0.0  0.5      -0.500       1.000     0.00000
 ICORP=  0  NPCL=  0  DEMP=0.00  PEPS=0.000000
 R(1)=  0.1000000E-08 D=  0.1005080E+01 RNUC=  0.0000000E+00
 converged at cycle   41  DENSITY AVERAGING    0.2400
  MAXIMUM ERROR IN R.V(R) IS   0.93203452E-05
 Q,EY,EV,EZ,ESUM,ETOT,RHO  0.420000E+02 -0.161898E+03 -0.662509E+04 -0.978397E+04 -0.242700E+04 -0.404691E+04  0.342495E-11


 DIRAC CALCULATION
1                    MOLYBDENUM ATOM 3d CORE RELATIVISTIC, Point Nuc, A and c from libtc


 EXCHANGE COEFFICIENT=  0.7000000           TAIL CORRECTION=  0.           NUCLEAR RADIUS=  0.000E+00
0                       ORBITAL    N    L    J     ELECTRONS     EIGENVALUE                DELTA OF EIGENV.

                          1S1/2  1.0  0.0  0.5     2.000       -0.7276812E+03                 0.2822496E-04
                          2S1/2  2.0  0.0  0.5     2.000       -0.1028194E+03                 0.1725465E-04
                          2P1/2  2.0  1.0  0.5     2.000       -0.9468016E+02                 0.1864325E-04
                          2P3/2  2.0  1.0  1.5     4.000       -0.9076266E+02                 0.1832345E-04
                          3S1/2  3.0  0.0  0.5     2.000       -0.1747094E+02                 0.5979346E-05
                          3P1/2  3.0  1.0  0.5     2.000       -0.1436574E+02                 0.6275079E-05
                          3P3/2  3.0  1.0  1.5     4.000       -0.1371946E+02                 0.5984426E-05
                          3D3/2  3.0  2.0  1.5     4.000       -0.8203697E+01                 0.6709395E-05
                          3D5/2  3.0  2.0  2.5     6.000       -0.8081013E+01                 0.6610438E-05
                          4S1/2  4.0  0.0  0.5     2.000       -0.2338238E+01                 0.2446887E-06
                          4P1/2  4.0  1.0  0.5     2.000       -0.1452045E+01                 0.2971982E-06
                          4P3/2  4.0  1.0  1.5     4.000       -0.1358936E+01                 0.3186552E-06
                          4D3/2  4.0  2.0  1.5     4.000       -0.1184046E+00                 0.3378248E-06
                          4D5/2  4.0  2.0  2.5     1.000       -0.1108976E+00                 0.3342679E-06
                          5S1/2  5.0  0.0  0.5     1.000       -0.1320069E+00                 0.9757102E-07


                                        NUCLEAR CHARGE=   42.000000
                            INTEGRAL OF CHARGE DENSITY=   42.000000
                           SUM OF THE ORBITAL ENERGIES=  -2426.9970
                                          TOTAL ENERGY=  -4046.9128
                                        KINETIC ENERGY=   4198.0886
                             NUCLEAR ATTRACTION ENERGY=  -9783.9685
                             ELECTRON REPULSION ENERGY=   1660.3903
                                       EXCHANGE ENERGY=   -121.4232

 *******************************************************************************

                             D I R A C   E X I T
 NORMAL TERMINATION



 =================
 Timing Statistics
 =================
  
 Total Used :                     CPU=        0.45      System=        0.01     Elapsed=        0.47

 Calls  Section                     ( Mean, Percentage )
 ---------------------------------------------------------------------------------------------------
     2  ><      ................      0.00    0.00             0.00    0.00             0.00    0.00
     1  EXIT PROCEDURE .........      0.45  100.00             0.01  100.00             0.47  100.00


 Currently Open Files (EXIT00)
 ====================

 Unit    Access Format  Status   Type       Ident (file)
 -------------------------------------------------------
   3      SEQ    FORM   TRANSP  NORMAL      LOGFILE
                                          ( logfile )
 
Create Mo   file=TZP-Mo.3d
XC
  GGA PBE
End
relativistic ZORA
Corepotentials t12.rel
End

 *******************************************************************************
 *                                                                             *
 *  -------------------------------------                                      *
 *   Amsterdam Density Functional  (ADF)         2019                          *
 *  -------------------------------------                                      *
 *                                               r74351 2019-04-25             *
 *                                                                             *
 *                                                                             *
 *                              =================                              *
 *                              |               |                              *
 *                              |     A D F     |                              *
 *                              |               |                              *
 *                              =================                              *
 *                                                                             *
 *                                                                             *
 *   Online information and documentation:  https://www.scm.com/support/       *
 *   E-mail:  support@scm.com   info@scm.com                                   *
 *                                                                             *
 *   Scientific publications using ADF results must be properly referenced     *
 *   See the User Manuals (or the web site) for recommended citations          *
 *   The terms and conditions of the End User License Agreement apply to       *
 *   the use of ADF, https://www.scm.com/license-terms/                        *
 *                                                                             *
 **********************  x86_64_linux_intel / intelmpi  ************************
 
 Licensed to: Dr. Carles Bo / Institute of Chemical Research of Catalonia ( (ICIQ) / Tarragona / Spain 2022-11-28 14:37:29
 SCM User ID: u7609
  
 ADF 2019  RunTime: Feb16-2023 07:49:43  Nodes: 1  Procs: 1

 Temporary files are created in /scratch/kid_0.1914723644

 Molybdenum (TZP, 3d frozen)



 ===========================
 A T T A C H E D   F I L E S
 ===========================
  
 CREATE - Data File:    TZP-Mo.3d
                        Molybdenum (TZP, 3d frozen)
 Core Potentials:
         file : t12.rel



 ===============================
 M O D E L   P A R A M E T E R S
 ===============================
  
 DENSITY FUNCTIONAL POTENTIAL (scf)
    LDA:                               PW92                                    == Not Default ==
    Gradient Corrections:              PBEc PBEx                               == Not Default ==

 SPIN  (restricted / unrestr.)
    Molecule:                          Restricted                               

 OTHER ASPECTS
    Relativistic Corrections:          scalar (ZORA,MAPA)                      == Not Default ==

    Nuclear Charge Density Model:      Point Charge Nuclei                      
    Core Treatment:                    Frozen Orbital(s)                        

    Hyperfine or Zeeman Interaction:   ---                                      



 =====================================
 S Y M M E T R Y ,   E L E C T R O N S
 =====================================
  
 Symmetry: ATOM

 Irreducible Representations, including subspecies
 -------------------------------------------------
 S
 P:x  P:y  P:z
 D:z2  D:x2-y2  D:xy  D:xz  D:yz
 F:z3  F:z  F:xyz  F:z2x  F:z2y  F:x  F:y


 Configuration of Valence Electrons
 ==================================

          Occupation Numbers
          -------------------------------------------------
 S        2 1
 P        6
 D        5
 F        0
          -------------------------------------------------

 Total:   14

 Net Charge: 0 (Nuclei minus Electrons)

 Preset values for MO occupations will be applied through SCF cycle no. 1000000
 Thereafter, the program will assign electrons to MOs that are spatially
 similar to the occupied MOs in a "reference" cycle ("KeepOrbitals").
 The reference cycle is always the PREVIOUS cycle: it will evolve with
 the SCF procedure.



 ================================
 (Slater-type)  F U N C T I O N S  ***  (Basis and Fit)  ***
 ================================
  

 Atom Type    1  (Mo)
 ==============

 Valence Basis Sets:  18
 -----------------------
   1 S   30.500000
   2 S   17.750000
   3 S    8.350000
   2 P   18.600000
   3 P    8.700000
   3 D   10.050000
   4 S    5.100000
   4 S    3.300000
   5 S    2.150000
   5 S    1.350000
   5 S    0.870000
   4 P    4.950000
   4 P    3.300000
   4 P    2.300000
   4 D    3.500000
   4 D    1.850000
   4 D    0.970000
   5 P    1.350000

 Frozen Core Shells
 ------------------
    S:  3
    P:  2
    D:  1


 BAS: List of all Elementary Cartesian Basis Functions
 =====================================================

 The numbering in the list below (to the right of the function characteristics) is referred
 to in print-outs of MO eigenvectors and Mulliken populations in the BAS representation
 (as contrasted to the SFO representation).

 Notes:
 1. The functions are characterized by a polynomial prefactor (powers of x,y,z and r) and
    an exponential decay factor alpha.
 2. Since the basis sets are specific for an atom TYPE, the individual functions occur on
    all atoms of that type.
 3. The word 'Core' in the left margin signals that it is a Core Function (CF) : not a
    degree of freedom in the valence set, but only used to ensure orthogonalization of
    the other valence basis functions on the frozen Core Orbitals.


 (power of) X  Y  Z  R     Alpha  on Atom
            ==========     =====     ==========

 Mo                                   1
                                  ---------------------------------------------------------------------------
    Core    0  0  0  0    30.500      1
    Core    0  0  0  1    17.750      2
    Core    0  0  0  2     8.350      3
    Core    1  0  0  0    18.600      4
    Core    0  1  0  0    18.600      5
    Core    0  0  1  0    18.600      6
    Core    1  0  0  1     8.700      7
    Core    0  1  0  1     8.700      8
    Core    0  0  1  1     8.700      9
    Core    2  0  0  0    10.050     10
    Core    1  1  0  0    10.050     11
    Core    1  0  1  0    10.050     12
    Core    0  2  0  0    10.050     13
    Core    0  1  1  0    10.050     14
    Core    0  0  2  0    10.050     15
            0  0  0  3     5.100     16
            0  0  0  3     3.300     17
            0  0  0  4     2.150     18
            0  0  0  4     1.350     19
            0  0  0  4     0.870     20
            1  0  0  2     4.950     21
            0  1  0  2     4.950     22
            0  0  1  2     4.950     23
            1  0  0  2     3.300     24
            0  1  0  2     3.300     25
            0  0  1  2     3.300     26
            1  0  0  2     2.300     27
            0  1  0  2     2.300     28
            0  0  1  2     2.300     29
            2  0  0  1     3.500     30
            1  1  0  1     3.500     31
            1  0  1  1     3.500     32
            0  2  0  1     3.500     33
            0  1  1  1     3.500     34
            0  0  2  1     3.500     35
            2  0  0  1     1.850     36
            1  1  0  1     1.850     37
            1  0  1  1     1.850     38
            0  2  0  1     1.850     39
            0  1  1  1     1.850     40
            0  0  2  1     1.850     41
            2  0  0  1     0.970     42
            1  1  0  1     0.970     43
            1  0  1  1     0.970     44
            0  2  0  1     0.970     45
            0  1  1  1     0.970     46
            0  0  2  1     0.970     47
            1  0  0  3     1.350     48
            0  1  0  3     1.350     49
            0  0  1  3     1.350     50

 Total number of charge fitting functions (nprimf)       230
 Total number of Cartesian basis functions (naos)         50
 Total number of Cartesian core functions  (ncos)         15



 BAS: List of all Elementary Cartesian Basis Functions
 =====================================================

 The numbering in the list below (to the right of the function characteristics) is referred
 to in print-outs of MO eigenvectors and Mulliken populations in the BAS representation
 (as contrasted to the SFO representation).

 Notes:
 1. The functions are characterized by a polynomial prefactor (powers of x,y,z and r) and
    an exponential decay factor alpha.
 2. Since the basis sets are specific for an atom TYPE, the individual functions occur on
    all atoms of that type.
 3. The word 'Core' in the left margin signals that it is a Core Function (CF) : not a
    degree of freedom in the valence set, but only used to ensure orthogonalization of
    the other valence basis functions on the frozen Core Orbitals.


 (power of) X  Y  Z  R     Alpha  on Atom
            ==========     =====     ==========

 Mo                                   1
                                  ---------------------------------------------------------------------------
    Core    0  0  0  0    30.500      1
    Core    0  0  0  1    17.750      2
    Core    0  0  0  2     8.350      3
    Core    1  0  0  0    18.600      4
    Core    0  1  0  0    18.600      5
    Core    0  0  1  0    18.600      6
    Core    1  0  0  1     8.700      7
    Core    0  1  0  1     8.700      8
    Core    0  0  1  1     8.700      9
    Core    2  0  0  0    10.050     10
    Core    1  1  0  0    10.050     11
    Core    1  0  1  0    10.050     12
    Core    0  2  0  0    10.050     13
    Core    0  1  1  0    10.050     14
    Core    0  0  2  0    10.050     15
            0  0  0  3     5.100     16
            0  0  0  3     3.300     17
            0  0  0  4     2.150     18
            0  0  0  4     1.350     19
            0  0  0  4     0.870     20
            1  0  0  2     4.950     21
            0  1  0  2     4.950     22
            0  0  1  2     4.950     23
            1  0  0  2     3.300     24
            0  1  0  2     3.300     25
            0  0  1  2     3.300     26
            1  0  0  2     2.300     27
            0  1  0  2     2.300     28
            0  0  1  2     2.300     29
            2  0  0  1     3.500     30
            1  1  0  1     3.500     31
            1  0  1  1     3.500     32
            0  2  0  1     3.500     33
[...]
   31.O         3.396282    1.501733   -1.495379
   32.O        -3.379322    1.571336    1.514142
   33.O         1.553782   -1.504527    3.355648
   34.O         1.546844    1.486052   -3.442514
   35.O        -1.488442    1.468163    3.412307
   36.O        -1.517845   -1.516543   -3.433791
   37.O        -1.505708   -3.365461   -1.539600
   38.O        -1.499118    3.365267    1.497943
   39.O         1.512072   -3.361654    1.446961
   40.O         1.503855    3.383224   -1.531394
   41.O        -0.182561   -3.687252    3.788779
   42.O         0.289138   -3.737513   -3.742172
   43.O        -0.174530    3.689660   -3.809254
   44.O         0.115960    3.750690    3.788048
   45.O         3.861866   -3.809717   -0.214980
   46.O         3.690319    3.796043    0.203079
   47.O        -3.741957    3.884924   -0.249454
   48.O        -3.680322   -3.774072    0.194799
   49.O        -3.757782    0.175616   -3.707202
   50.O        -3.858316   -0.139408    3.683965
   51.O         3.791090    0.232732    3.718686
   52.O         3.830373   -0.234204   -3.661218
   53.P         0.007302    0.010009   -0.024167
   54.H        -4.460544    3.762716   -0.910767
   55.H         3.804675   -4.706714    0.188903
 <Feb17-2023> <03:35:35>  >>>> CORORT
 <Feb17-2023> <03:35:35>  >>>> CLSMAT
 <Feb17-2023> <03:35:35>  >>>> ORTHON
 <Feb17-2023> <03:35:36>  >>>> GENPT
 <Feb17-2023> <03:35:36>  Block Length= 128
 <Feb17-2023> <03:35:36>  >>>> PTBAS
 <Feb17-2023> <03:35:57>  combining surface points...
 <Feb17-2023> <03:35:57>  combining surface points...
 <Feb17-2023> <03:35:57>  combining surface points...
 <Feb17-2023> <03:35:57>  >>>> CYCLE
 <Feb17-2023> <03:36:11>              |Error|         MaxErr       Wt(A-DIIS)
 <Feb17-2023> <03:36:11>      1      0.10812883      0.01337595
 <Feb17-2023> <03:36:23>      2      0.34380320      0.03137684    100.0
 <Feb17-2023> <03:36:35>      3      0.15513058      0.01531011    100.0
 <Feb17-2023> <03:36:47>      4      0.32751650      0.02383985    100.0
 <Feb17-2023> <03:36:59>      5      0.19771167      0.03216298    100.0
 <Feb17-2023> <03:37:11>      6      0.19225525      0.03511551    100.0
 <Feb17-2023> <03:37:23>      7      0.18831963      0.01301291    100.0
 <Feb17-2023> <03:37:35>      8      0.11692280      0.00801450      7.1
 <Feb17-2023> <03:37:47>      9      0.02320988      0.00248480      1.5
 <Feb17-2023> <03:37:59>     10      0.00820227      0.00068867      0.0
 <Feb17-2023> <03:38:11>     11      0.00424470      0.00046523      0.0
 <Feb17-2023> <03:38:23>     12      0.00171750      0.00014762      0.0
 <Feb17-2023> <03:38:35>     13      0.00158560      0.00014366      0.0
 <Feb17-2023> <03:38:47>     14      0.00052989      0.00006419      0.0
 <Feb17-2023> <03:38:59>     15      0.00093763      0.00009295      0.0
 <Feb17-2023> <03:39:11>     16      0.00009719      0.00001717      0.0
 <Feb17-2023> <03:39:23>     17      0.00021492      0.00002188      0.0
 <Feb17-2023> <03:39:34>     18      0.00004987      0.00000432      0.0
 <Feb17-2023> <03:39:46>     19      0.00006333      0.00000743      0.0
 <Feb17-2023> <03:39:58>     20      0.00004746      0.00000416      0.0
 <Feb17-2023> <03:40:10>     21      0.00002138      0.00000226      0.0
 <Feb17-2023> <03:40:22>     22      0.00001778      0.00000198      0.0
 <Feb17-2023> <03:40:33>     23      0.00000588      0.00000044      0.0
 <Feb17-2023> <03:40:37>  SCF converged
 <Feb17-2023> <03:40:45>     24      0.00000348      0.00000040      0.0
 <Feb17-2023> <03:40:50>  >>>> TOTEN
 <Feb17-2023> <03:40:55>  >>>> POPAN
 <Feb17-2023> <03:40:55>  >>>> DEBYE
 <Feb17-2023> <03:40:55>  >>>> ENGRAD
 <Feb17-2023> <03:43:03>  Geometry symmetry displacement    2 out of    4
  Coordinates in Geometry Cycle 56
    Atom         X           Y           Z   (Angstrom)
    1.Mo        0.036920   -2.437360    2.643582
    2.Mo        0.012047   -2.545789   -2.548883
    3.Mo        0.161453    2.484329   -2.646995
    4.Mo       -0.157846    2.544167    2.612503
    5.Mo        2.552857   -2.553901    0.196987
    6.Mo        2.492425    2.610496   -0.078050
    7.Mo       -2.459217    2.559924    0.004872
    8.Mo       -2.478643   -2.596385   -0.103771
    9.Mo       -2.524490   -0.207732   -2.588210
   10.Mo       -2.665467    0.143063    2.494264
   11.Mo        2.559754   -0.007421    2.559271
   12.Mo        2.626808    0.101284   -2.497889
   13.O         0.902381   -0.877731    0.899539
   14.O        -0.874378   -0.903792   -0.922056
   15.O         0.913124    0.904021   -0.917807
   16.O        -0.910215    0.917620    0.857874
   17.O        -2.999982   -1.170380    1.193725
   18.O         2.983363   -1.225444   -1.149706
   19.O        -2.982435    1.213732   -1.091930
   20.O         3.035740    1.169786    1.153206
   21.O         1.165558   -1.140777   -3.041329
   22.O         1.206119    1.195742    3.072659
   23.O        -1.183714    1.182882   -2.969852
   24.O        -1.201095   -1.155745    3.094045
   25.O        -1.116050    3.061273   -1.137052
   26.O        -1.126586   -3.000482    1.179437
   27.O         1.170788    3.007304    1.209253
   28.O         1.184203   -3.033618   -1.160978
   29.O         3.405711   -1.499318    1.456632
   30.O        -3.391278   -1.456050   -1.451615
   31.O         3.396301    1.501587   -1.495343
   32.O        -3.379322    1.571337    1.514114
   33.O         1.553688   -1.504478    3.355705
   34.O         1.546909    1.486020   -3.442516
   35.O        -1.488473    1.468181    3.412303
   36.O        -1.517845   -1.516499   -3.433811
   37.O        -1.505752   -3.365451   -1.539626
   38.O        -1.499107    3.365260    1.497920
   39.O         1.512258   -3.361484    1.447114
   40.O         1.503920    3.383175   -1.531436
   41.O        -0.182560   -3.687261    3.788773
   42.O         0.289112   -3.737484   -3.742229
   43.O        -0.174511    3.689657   -3.809253
   44.O         0.115963    3.750680    3.788052
   45.O         3.861467   -3.809947   -0.215732
   46.O         3.690337    3.796031    0.203068
   47.O        -3.741953    3.884924   -0.249446
   48.O        -3.680324   -3.774068    0.194799
   49.O        -3.757783    0.175637   -3.707205
   50.O        -3.858328   -0.139403    3.683954
   51.O         3.791045    0.232765    3.718745
   52.O         3.830381   -0.234262   -3.661182
   53.P         0.007286    0.010004   -0.024169
   54.H        -4.460381    3.762823   -0.910951
   55.H         3.814643   -4.700172    0.204173
 <Feb17-2023> <03:43:04>  >>>> CORORT
 <Feb17-2023> <03:43:04>  >>>> CLSMAT
 <Feb17-2023> <03:43:04>  >>>> ORTHON
 <Feb17-2023> <03:43:04>  >>>> GENPT
 <Feb17-2023> <03:43:05>  Block Length= 128
 <Feb17-2023> <03:43:05>  >>>> PTBAS
 <Feb17-2023> <03:43:25>  combining surface points...
 <Feb17-2023> <03:43:25>  combining surface points...
 <Feb17-2023> <03:43:25>  combining surface points...
 <Feb17-2023> <03:43:26>  >>>> CYCLE
 <Feb17-2023> <03:43:39>              |Error|         MaxErr       Wt(A-DIIS)
 <Feb17-2023> <03:43:39>      1      0.10856271      0.01218965
 <Feb17-2023> <03:43:51>      2      0.34300559      0.03095053    100.0
 <Feb17-2023> <03:44:03>      3      0.15461101      0.01538107    100.0
 <Feb17-2023> <03:44:15>      4      0.32718209      0.02384250    100.0
 <Feb17-2023> <03:44:27>      5      0.19809570      0.03218458    100.0
 <Feb17-2023> <03:44:40>      6      0.19161885      0.03486287    100.0
 <Feb17-2023> <03:44:52>      7      0.19009588      0.01317745    100.0
 <Feb17-2023> <03:45:04>      8      0.11616405      0.00801043      7.1
 <Feb17-2023> <03:45:16>      9      0.02328343      0.00247662      1.5
 <Feb17-2023> <03:45:28>     10      0.00822390      0.00070510      0.0
 <Feb17-2023> <03:45:40>     11      0.00425593      0.00046954      0.0
 <Feb17-2023> <03:45:52>     12      0.00173070      0.00014696      0.0
 <Feb17-2023> <03:46:04>     13      0.00158514      0.00014393      0.0
 <Feb17-2023> <03:46:15>     14      0.00053266      0.00006366      0.0
 <Feb17-2023> <03:46:27>     15      0.00094765      0.00009281      0.0
 <Feb17-2023> <03:46:39>     16      0.00009679      0.00001707      0.0
 <Feb17-2023> <03:46:51>     17      0.00021733      0.00002147      0.0
 <Feb17-2023> <03:47:03>     18      0.00005416      0.00000483      0.0
 <Feb17-2023> <03:47:15>     19      0.00006266      0.00000741      0.0
 <Feb17-2023> <03:47:27>     20      0.00004938      0.00000439      0.0
 <Feb17-2023> <03:47:39>     21      0.00002328      0.00000242      0.0
 <Feb17-2023> <03:47:50>     22      0.00001859      0.00000210      0.0
 <Feb17-2023> <03:48:02>     23      0.00000628      0.00000047      0.0
 <Feb17-2023> <03:48:06>  SCF converged
 <Feb17-2023> <03:48:14>     24      0.00000365      0.00000042      0.0
 <Feb17-2023> <03:48:19>  >>>> TOTEN
 <Feb17-2023> <03:48:24>  >>>> POPAN
 <Feb17-2023> <03:48:24>  >>>> DEBYE
 <Feb17-2023> <03:48:24>  >>>> ENGRAD
 <Feb17-2023> <03:50:33>  Old frequency:   -206.74336, new:    360.77589
 <Feb17-2023> <03:50:33>  Geometry symmetry displacement    3 out of    4
  Coordinates in Geometry Cycle 56
    Atom         X           Y           Z   (Angstrom)
    1.Mo        0.036922   -2.437363    2.643579
    2.Mo        0.012056   -2.545782   -2.548885
    3.Mo        0.161483    2.484328   -2.646998
    4.Mo       -0.157879    2.544195    2.612492
    5.Mo        2.552861   -2.553929    0.197032
    6.Mo        2.492431    2.610494   -0.078057
    7.Mo       -2.459193    2.559903    0.004808
    8.Mo       -2.478642   -2.596381   -0.103760
    9.Mo       -2.524476   -0.207752   -2.588229
   10.Mo       -2.665482    0.143087    2.494263
   11.Mo        2.559726   -0.007386    2.559282
   12.Mo        2.626832    0.101255   -2.497856
   13.O         0.902380   -0.877715    0.899544
   14.O        -0.874377   -0.903784   -0.922058
   15.O         0.913117    0.904035   -0.917812
   16.O        -0.910234    0.917641    0.857854
   17.O        -2.999974   -1.170381    1.193718
   18.O         2.983375   -1.225316   -1.149750
   19.O        -2.982519    1.213680   -1.091760
   20.O         3.035757    1.169758    1.153186
   21.O         1.165520   -1.140777   -3.041354
   22.O         1.206151    1.195722    3.072679
   23.O        -1.183777    1.182911   -2.969781
   24.O        -1.201072   -1.155756    3.094032
   25.O        -1.116018    3.061374   -1.136957
   26.O        -1.126591   -3.000492    1.179430
   27.O         1.170814    3.007274    1.209269
   28.O         1.184248   -3.033581   -1.160940
   29.O         3.405747   -1.499306    1.456463
   30.O        -3.391270   -1.456046   -1.451623
   31.O         3.396285    1.501658   -1.495382
   32.O        -3.379343    1.571338    1.514168
   33.O         1.553739   -1.504515    3.355668
   34.O         1.546851    1.486032   -3.442533
   35.O        -1.488440    1.468145    3.412321
   36.O        -1.517854   -1.516502   -3.433837
   37.O        -1.505734   -3.365437   -1.539630
   38.O        -1.499046    3.365290    1.497958
   39.O         1.512163   -3.361571    1.447023
   40.O         1.503893    3.383200   -1.531429
   41.O        -0.182565   -3.687259    3.788774
   42.O         0.289125   -3.737496   -3.742206
   43.O        -0.174517    3.689663   -3.809241
   44.O         0.115978    3.750682    3.788059
   45.O         3.861665   -3.809838   -0.215365
   46.O         3.690335    3.796034    0.203073
   47.O        -3.741718    3.885092   -0.249719
   48.O        -3.680324   -3.774067    0.194793
   49.O        -3.757791    0.175645   -3.707187
   50.O        -3.858327   -0.139424    3.683961
   51.O         3.791066    0.232747    3.718717
   52.O         3.830373   -0.234235   -3.661205
   53.P         0.007287    0.010017   -0.024175
   54.H        -4.465988    3.758541   -0.904059
   55.H         3.809739   -4.703396    0.196655
 <Feb17-2023> <03:50:33>  >>>> CORORT
 <Feb17-2023> <03:50:33>  >>>> CLSMAT
 <Feb17-2023> <03:50:34>  >>>> ORTHON
 <Feb17-2023> <03:50:34>  >>>> GENPT
 <Feb17-2023> <03:50:34>  Block Length= 128
 <Feb17-2023> <03:50:35>  >>>> PTBAS
 <Feb17-2023> <03:50:55>  combining surface points...
 <Feb17-2023> <03:50:55>  combining surface points...
 <Feb17-2023> <03:50:55>  combining surface points...
 <Feb17-2023> <03:50:55>  >>>> CYCLE
 <Feb17-2023> <03:51:08>              |Error|         MaxErr       Wt(A-DIIS)
 <Feb17-2023> <03:51:08>      1      0.10826884      0.01332936
 <Feb17-2023> <03:51:20>      2      0.34369890      0.03125560    100.0
 <Feb17-2023> <03:51:32>      3      0.15537066      0.01524769    100.0
 <Feb17-2023> <03:51:45>      4      0.32761530      0.02385795    100.0
 <Feb17-2023> <03:51:57>      5      0.19694360      0.03192902    100.0
 <Feb17-2023> <03:52:09>      6      0.19285655      0.03524026    100.0
 <Feb17-2023> <03:52:21>      7      0.18694493      0.01292940    100.0
 <Feb17-2023> <03:52:33>      8      0.11739013      0.00803798      7.1
 <Feb17-2023> <03:52:45>      9      0.02314306      0.00250313      1.5
 <Feb17-2023> <03:52:57>     10      0.00818765      0.00067674      0.0
 <Feb17-2023> <03:53:09>     11      0.00423091      0.00046178      0.0
 <Feb17-2023> <03:53:20>     12      0.00170741      0.00014837      0.0
 <Feb17-2023> <03:53:32>     13      0.00158478      0.00014354      0.0
 <Feb17-2023> <03:53:44>     14      0.00052641      0.00006407      0.0
 <Feb17-2023> <03:53:56>     15      0.00093089      0.00009271      0.0
 <Feb17-2023> <03:54:08>     16      0.00009757      0.00001730      0.0
 <Feb17-2023> <03:54:20>     17      0.00021112      0.00002136      0.0
 <Feb17-2023> <03:54:32>     18      0.00004686      0.00000391      0.0
 <Feb17-2023> <03:54:44>     19      0.00006397      0.00000747      0.0
 <Feb17-2023> <03:54:56>     20      0.00004576      0.00000399      0.0
 <Feb17-2023> <03:55:07>     21      0.00001975      0.00000213      0.0
 <Feb17-2023> <03:55:19>     22      0.00001716      0.00000188      0.0
 <Feb17-2023> <03:55:31>     23      0.00000557      0.00000041      0.0
 <Feb17-2023> <03:55:35>  SCF converged
 <Feb17-2023> <03:55:43>     24      0.00000334      0.00000038      0.0
 <Feb17-2023> <03:55:47>  >>>> TOTEN
 <Feb17-2023> <03:55:53>  >>>> POPAN
 <Feb17-2023> <03:55:53>  >>>> DEBYE
 <Feb17-2023> <03:55:53>  >>>> ENGRAD
 <Feb17-2023> <03:58:01>  Geometry symmetry displacement    4 out of    4
  Coordinates in Geometry Cycle 56
    Atom         X           Y           Z   (Angstrom)
    1.Mo        0.036929   -2.437363    2.643578
    2.Mo        0.012045   -2.545770   -2.548892
    3.Mo        0.161441    2.484325   -2.647005
    4.Mo       -0.157827    2.544167    2.612496
    5.Mo        2.552849   -2.553921    0.197026
    6.Mo        2.492428    2.610497   -0.078084
    7.Mo       -2.459252    2.559940    0.004924
    8.Mo       -2.478642   -2.596393   -0.103778
    9.Mo       -2.524495   -0.207708   -2.588192
   10.Mo       -2.665451    0.143045    2.494265
   11.Mo        2.559735   -0.007400    2.559278
   12.Mo        2.626827    0.101265   -2.497860
   13.O         0.902420   -0.877742    0.899542
   14.O        -0.874356   -0.903814   -0.922040
   15.O         0.913118    0.904026   -0.917802
   16.O        -0.910189    0.917583    0.857908
   17.O        -2.999983   -1.170379    1.193746
   18.O         2.983382   -1.225307   -1.149732
   19.O        -2.982381    1.213765   -1.092070
   20.O         3.035719    1.169791    1.153224
   21.O         1.165548   -1.140792   -3.041350
   22.O         1.206123    1.195743    3.072708
   23.O        -1.183692    1.182839   -2.969904
   24.O        -1.201071   -1.155732    3.094062
   25.O        -1.116114    3.061166   -1.137126
   26.O        -1.126598   -3.000468    1.179462
   27.O         1.170757    3.007283    1.209274
   28.O         1.184253   -3.033572   -1.160915
   29.O         3.405749   -1.499287    1.456483
   30.O        -3.391268   -1.456067   -1.451593
   31.O         3.396298    1.501662   -1.495340
   32.O        -3.379302    1.571335    1.514088
   33.O         1.553731   -1.504490    3.355685
   34.O         1.546902    1.486040   -3.442497
   35.O        -1.488474    1.468199    3.412288
   36.O        -1.517835   -1.516540   -3.433766
   37.O        -1.505726   -3.365475   -1.539596
   38.O        -1.499179    3.365236    1.497906
   39.O         1.512167   -3.361566    1.447052
   40.O         1.503881    3.383199   -1.531401
   41.O        -0.182556   -3.687254    3.788778
   42.O         0.289125   -3.737501   -3.742194
   43.O        -0.174524    3.689653   -3.809266
   44.O         0.115945    3.750688    3.788041
   45.O         3.861668   -3.809826   -0.215347
   46.O         3.690321    3.796039    0.203075
   47.O        -3.742191    3.884756   -0.249181
   48.O        -3.680322   -3.774073    0.194806
   49.O        -3.757774    0.175607   -3.707219
   50.O        -3.858317   -0.139387    3.683958
   51.O         3.791068    0.232751    3.718714
   52.O         3.830380   -0.234231   -3.661195
   53.P         0.007301    0.009996   -0.024161
   54.H        -4.454938    3.766997   -0.917660
   55.H         3.809578   -4.703490    0.196420
 <Feb17-2023> <03:58:01>  >>>> CORORT
 <Feb17-2023> <03:58:02>  >>>> CLSMAT
 <Feb17-2023> <03:58:02>  >>>> ORTHON
 <Feb17-2023> <03:58:02>  >>>> GENPT
 <Feb17-2023> <03:58:02>  Block Length= 128
 <Feb17-2023> <03:58:03>  >>>> PTBAS
 <Feb17-2023> <03:58:23>  combining surface points...
 <Feb17-2023> <03:58:23>  combining surface points...
 <Feb17-2023> <03:58:23>  combining surface points...
 <Feb17-2023> <03:58:23>  >>>> CYCLE
 <Feb17-2023> <03:58:37>              |Error|         MaxErr       Wt(A-DIIS)
 <Feb17-2023> <03:58:37>      1      0.10871378      0.01296481
 <Feb17-2023> <03:58:49>      2      0.34373648      0.03113096    100.0
 <Feb17-2023> <03:59:01>      3      0.15515078      0.01530004    100.0
 <Feb17-2023> <03:59:13>      4      0.32790678      0.02387145    100.0
 <Feb17-2023> <03:59:25>      5      0.19778297      0.03205993    100.0
 <Feb17-2023> <03:59:37>      6      0.19196270      0.03492962    100.0
 <Feb17-2023> <03:59:49>      7      0.18903929      0.01305568    100.0
 <Feb17-2023> <04:00:01>      8      0.11642642      0.00800215      7.1
 <Feb17-2023> <04:00:13>      9      0.02321057      0.00248213      1.5
 <Feb17-2023> <04:00:25>     10      0.00820831      0.00069366      0.0
 <Feb17-2023> <04:00:37>     11      0.00424493      0.00046565      0.0
 <Feb17-2023> <04:00:49>     12      0.00172123      0.00014793      0.0
 <Feb17-2023> <04:01:01>     13      0.00158666      0.00014391      0.0
 <Feb17-2023> <04:01:13>     14      0.00052960      0.00006371      0.0
 <Feb17-2023> <04:01:25>     15      0.00094231      0.00009265      0.0
 <Feb17-2023> <04:01:37>     16      0.00009729      0.00001720      0.0
 <Feb17-2023> <04:01:49>     17      0.00021846      0.00002193      0.0
 <Feb17-2023> <04:02:01>     18      0.00005280      0.00000463      0.0
 <Feb17-2023> <04:02:12>     19      0.00006509      0.00000763      0.0
 <Feb17-2023> <04:02:24>     20      0.00004863      0.00000427      0.0
 <Feb17-2023> <04:02:36>     21      0.00002249      0.00000237      0.0
 <Feb17-2023> <04:02:48>     22      0.00001831      0.00000205      0.0
 <Feb17-2023> <04:03:00>     23      0.00000618      0.00000046      0.0
 <Feb17-2023> <04:03:04>  SCF converged
 <Feb17-2023> <04:03:12>     24      0.00000364      0.00000042      0.0
 <Feb17-2023> <04:03:16>  >>>> TOTEN
 <Feb17-2023> <04:03:22>  >>>> POPAN
 <Feb17-2023> <04:03:22>  >>>> DEBYE
 <Feb17-2023> <04:03:22>  >>>> ENGRAD
 <Feb17-2023> <04:05:30>  Old frequency:   -192.51725, new:    323.46177
 <Feb17-2023> <04:05:30>  NOTE: Some frequencies have been re-calculated by numerical differentiation
 <Feb17-2023> <04:05:30>        Check the text output file for new values!
 <Feb17-2023> <04:05:30>  NORMAL TERMINATION
 <Feb17-2023> <04:05:31>  END
