
 *******************************************************************************
 *                                                                             *
 *  -------------------------------------                                      *
 *   Amsterdam Density Functional  (ADF)         2019                          *
 *  -------------------------------------                                      *
 *                                               r74351 2019-04-25             *
 *                                                                             *
 *                                                                             *
 *                            =====================                            *
 *                            |                   |                            *
 *                            |     D I R A C     |                            *
 *                            |                   |                            *
 *                            =====================                            *
 *                                                                             *
 *                                                                             *
 *   Online information and documentation:  https://www.scm.com/support/       *
 *   E-mail:  support@scm.com   info@scm.com                                   *
 *                                                                             *
 *   Scientific publications using ADF results must be properly referenced     *
 *   See the User Manuals (or the web site) for recommended citations          *
 *   The terms and conditions of the End User License Agreement apply to       *
 *   the use of ADF, https://www.scm.com/license-terms/                        *
 *                                                                             *
 **********************  x86_64_linux_intel / intelmpi  ************************
 
 Licensed to: Dr. Carles Bo / Institute of Chemical Research of Catalonia ( (ICIQ) / Tarragona / Spain 2022-11-28 14:37:29
 SCM User ID: u7609
  
 DIRAC 2019  RunTime: Feb10-2023 07:49:31  Nodes: 1  Procs: 1

 Temporary files are created in /scratch/kid_0.1828969775

1
 HYDROGEN ATOM RELATIVISTIC, Point Nuc, A and c from libtc   
 N J RN H ZN XION ANUC CLIGHT
 5000    1100.00000000197.36710137  1.00000000  0.00000000    1.007825  0.1370360E+03
  PH   PHI     EPS        DEL        DELRVR
  0.30  0.30     2500.00  0.00001000  0.00001000
 IDIRC  NC1  NDEBU NPRIN  IPUN IRCOR IWCOR
   1   300     0     0     0     0     0
   XALPHA      XLATTER      RNUC
  0.70000000  0.00000000  0.00000000 Point Charge
   XN   XL   XJ      XE          XZ      XDELL
  1.0  0.0  0.5      -1.000       1.000     0.00000
 ICORP=  0  NPCL=  0  DEMP=0.00  PEPS=0.000000
 R(1)=  0.1000000E-08 D=  0.1005080E+01 RNUC=  0.0000000E+00
 converged at cycle   32  DENSITY AVERAGING    0.2400
  MAXIMUM ERROR IN R.V(R) IS   0.79874357E-05
 Q,EY,EV,EZ,ESUM,ETOT,RHO  0.100000E+01 -0.266614E+00 -0.619969E+00 -0.910779E+00 -0.203940E+00 -0.415998E+00  0.337036E-17


 DIRAC CALCULATION
1                    HYDROGEN ATOM RELATIVISTIC, Point Nuc, A and c from libtc


 EXCHANGE COEFFICIENT=  0.7000000           TAIL CORRECTION=  0.           NUCLEAR RADIUS=  0.000E+00
0                       ORBITAL    N    L    J     ELECTRONS     EIGENVALUE                DELTA OF EIGENV.

                          1S1/2  1.0  0.0  0.5     1.000       -0.2039397E+00                 0.2720093E-06


                                        NUCLEAR CHARGE=    1.000000
                            INTEGRAL OF CHARGE DENSITY=    1.000000
                           SUM OF THE ORBITAL ENERGIES=     -0.2039
                                          TOTAL ENERGY=     -0.4160
                                        KINETIC ENERGY=      0.4160
                             NUCLEAR ATTRACTION ENERGY=     -0.9108
                             ELECTRON REPULSION ENERGY=      0.2787
                                       EXCHANGE ENERGY=     -0.2000

 *******************************************************************************

                             D I R A C   E X I T
 NORMAL TERMINATION



 =================
 Timing Statistics
 =================
  
 Total Used :                     CPU=        0.06      System=        0.00     Elapsed=        0.07

 Calls  Section                     ( Mean, Percentage )
 ---------------------------------------------------------------------------------------------------
     2  ><      ................      0.00    0.00             0.00    0.00             0.00    0.01
     1  EXIT PROCEDURE .........      0.06  100.00             0.00  100.00             0.07   99.99


 Currently Open Files (EXIT00)
 ====================

 Unit    Access Format  Status   Type       Ident (file)
 -------------------------------------------------------
   3      SEQ    FORM   TRANSP  NORMAL      LOGFILE
                                          ( logfile )
 
Create H   file=TZP-H
XC
  GGA PBE
End
relativistic ZORA
Corepotentials t12.rel
End

 *******************************************************************************
 *                                                                             *
 *  -------------------------------------                                      *
 *   Amsterdam Density Functional  (ADF)         2019                          *
 *  -------------------------------------                                      *
 *                                               r74351 2019-04-25             *
 *                                                                             *
 *                                                                             *
 *                              =================                              *
 *                              |               |                              *
 *                              |     A D F     |                              *
 *                              |               |                              *
 *                              =================                              *
 *                                                                             *
 *                                                                             *
 *   Online information and documentation:  https://www.scm.com/support/       *
 *   E-mail:  support@scm.com   info@scm.com                                   *
 *                                                                             *
 *   Scientific publications using ADF results must be properly referenced     *
 *   See the User Manuals (or the web site) for recommended citations          *
 *   The terms and conditions of the End User License Agreement apply to       *
 *   the use of ADF, https://www.scm.com/license-terms/                        *
 *                                                                             *
 **********************  x86_64_linux_intel / intelmpi  ************************
 
 Licensed to: Dr. Carles Bo / Institute of Chemical Research of Catalonia ( (ICIQ) / Tarragona / Spain 2022-11-28 14:37:29
 SCM User ID: u7609
  
 ADF 2019  RunTime: Feb10-2023 07:49:31  Nodes: 1  Procs: 1

 Temporary files are created in /scratch/kid_0.1014092258

 Hydrogen (TZP)



 ===========================
 A T T A C H E D   F I L E S
 ===========================
  
 CREATE - Data File:    TZP-H
                        Hydrogen (TZP)
 Core Potentials:
         file : t12.rel



 ===============================
 M O D E L   P A R A M E T E R S
 ===============================
  
 DENSITY FUNCTIONAL POTENTIAL (scf)
    LDA:                               PW92                                    == Not Default ==
    Gradient Corrections:              PBEc PBEx                               == Not Default ==

 SPIN  (restricted / unrestr.)
    Molecule:                          Restricted                               

 OTHER ASPECTS
    Relativistic Corrections:          scalar (ZORA,MAPA)                      == Not Default ==

    Nuclear Charge Density Model:      Point Charge Nuclei                      
    Core Treatment:                    Frozen Orbital(s)                        

    Hyperfine or Zeeman Interaction:   ---                                      



 =====================================
 S Y M M E T R Y ,   E L E C T R O N S
 =====================================
  
 Symmetry: ATOM

 Irreducible Representations, including subspecies
 -------------------------------------------------
 S
 P:x  P:y  P:z
 D:z2  D:x2-y2  D:xy  D:xz  D:yz
 F:z3  F:z  F:xyz  F:z2x  F:z2y  F:x  F:y


 Configuration of Valence Electrons
 ==================================

          Occupation Numbers
          -------------------------------------------------
 S        1
 P        0
 D        0
 F        0
          -------------------------------------------------

 Total:   1

 Net Charge: 0 (Nuclei minus Electrons)

 Preset values for MO occupations will be applied through SCF cycle no. 1000000
 Thereafter, the program will assign electrons to MOs that are spatially
 similar to the occupied MOs in a "reference" cycle ("KeepOrbitals").
 The reference cycle is always the PREVIOUS cycle: it will evolve with
 the SCF procedure.



 ================================
 (Slater-type)  F U N C T I O N S  ***  (Basis and Fit)  ***
 ================================
  

 Atom Type    1  (H)
 ==============

 Valence Basis Sets:   4
 -----------------------
   1 S    0.690000
   1 S    0.920000
   1 S    1.580000
   2 P    1.250000


 BAS: List of all Elementary Cartesian Basis Functions
 =====================================================

 The numbering in the list below (to the right of the function characteristics) is referred
 to in print-outs of MO eigenvectors and Mulliken populations in the BAS representation
 (as contrasted to the SFO representation).

 Notes:
 1. The functions are characterized by a polynomial prefactor (powers of x,y,z and r) and
    an exponential decay factor alpha.
 2. Since the basis sets are specific for an atom TYPE, the individual functions occur on
    all atoms of that type.
 3. The word 'Core' in the left margin signals that it is a Core Function (CF) : not a
    degree of freedom in the valence set, but only used to ensure orthogonalization of
    the other valence basis functions on the frozen Core Orbitals.


 (power of) X  Y  Z  R     Alpha  on Atom
            ==========     =====     ==========

 H                                    1
                                  ---------------------------------------------------------------------------
            0  0  0  0     0.690      1
            0  0  0  0     0.920      2
            0  0  0  0     1.580      3
            1  0  0  0     1.250      4
            0  1  0  0     1.250      5
            0  0  1  0     1.250      6

 Total number of charge fitting functions (nprimf)        50
 Total number of Cartesian basis functions (naos)          6
 Total number of Cartesian core functions  (ncos)          0



 BAS: List of all Elementary Cartesian Basis Functions
 =====================================================

 The numbering in the list below (to the right of the function characteristics) is referred
 to in print-outs of MO eigenvectors and Mulliken populations in the BAS representation
 (as contrasted to the SFO representation).

 Notes:
 1. The functions are characterized by a polynomial prefactor (powers of x,y,z and r) and
    an exponential decay factor alpha.
 2. Since the basis sets are specific for an atom TYPE, the individual functions occur on
    all atoms of that type.
 3. The word 'Core' in the left margin signals that it is a Core Function (CF) : not a
    degree of freedom in the valence set, but only used to ensure orthogonalization of
    the other valence basis functions on the frozen Core Orbitals.


 (power of) X  Y  Z  R     Alpha  on Atom
            ==========     =====     ==========

 H                                    1
                                  ---------------------------------------------------------------------------
            0  0  0  0     0.690      1
            0  0  0  0     0.920      2
            0  0  0  0     1.580      3
            1  0  0  0     1.250      4
            0  1  0  0     1.250      5
            0  0  1  0     1.250      6
1
 ***************************************************************************************************



                                              ***********************
                                              *  T E C H N I C A L  *
                                              ***********************
  



 =============================================================
 P A R A L L E L I Z A T I O N  and  V E C T O R I Z A T I O N
 =============================================================
  
 Nr of parallel processes:                                1
 Maximum vector length in NumInt loops:                 128



 =====================
 S C F   U P D A T E S
 =====================
  
 Max. nr. of cycles:                               300
 Convergence criterion:                              0.0000000100
   secondary criterion:                              0.0000000100

 Mix parameter (when DIIS does not apply):           0.2000000000
 Special mix parameter for the first cycle:          1.0000000000
 Mixed ADIIS+SDIIS will be used                  
    Max number of expansion vectors:                10
    Pure ADIIS when Max([F,P]) is above              0.1000000000
    Pure SDIIS when Max([F,P]) is below              0.0010000000
 Automatic ElectronSmearing (in case of problematic SCF convergence) disabled



 =================
 P R E C I S I O N  ***  (General: NumInt, NeglectFunctionTails, ...)  ***
 =================
  

 NumInt:           Target precision:                12.0000000000
 -------           Initial precision:               10.0000000000
                   Min. precision (optimization):   10.0000000000

 Neglect Functions:          Basis functions:        0.1000000000E-13
 ------------------          Fit functions:          0.1000000000E-13



 ===========================
 L I N E A R   S C A L I N G
 ===========================
  

 Cut-off radii density fit:                        0.1000000000E-97
 Overlap cut-off criterion AO matrix elements:     0.1000000000E-97
 Cut-offs for Coulomb potential and fitted density:0.1000000000E-97
 Cut-off criterion for Coulomb multipole terms:    0.1000000000E-97
 Progressive Convergence parameter:                 0.000000000    
1
 ***************************************************************************************************



                                            ***************************
                                            *  C O M P U T A T I O N  *
                                            ***************************
  

 Number of elements of the density matrix on this node (used, total):        21        21



 ===========================================
 Numerical Integration : Fuzzy Cells (Becke)
 ===========================================
  
 Becke grid quality: VERYGOOD       
  
 Lebedev angular grid order:             min:  13 max:  41
 Nr. of radial points:                   min:  64 max:  64

 Total nr. of points:         64
 Nr. of blocks:                1
 Block length:                64
 Nr. of dummy points:          0


 Test of Precision of the Numerical Integration Grid
 ===================================================

 Integral of the Total Core Density:                   0.00000000000000



 ========================
 Density Fitting (zlmFit)
 ========================
  
 ZlmFit Fit Quality: VERYGOOD       
  
 Max L-expansion:                        min:   0 max:   0
 Nr. of radial interpolation points:     min: 120 max: 120



 =====
 S C F  ***  ScaSCF  ***
 =====
  

 CYCLE    1
 SCF Error: norm([F,P])=      0.000000000000, max([F,P])=      0.000000000000
 orbitals (Q,E):
 ---------------
 S :1...3            ( 1.00    -0.5000)  ( 0.00    -0.0900)  ( 0.00     1.2936)
 P :1...1            ( 0.00     0.1562)

 CYCLE    2
 SCF Error: norm([F,P])=      0.031537872292, max([F,P])=      0.030110494752
 orbitals (Q,E):
 ---------------
 S :1...2            ( 1.00    -0.2218)  ( 0.00     0.1019)
 P :1...1            ( 0.00     0.4189)

 CYCLE    3
  SDIIS (wt  0.000):  0.1996  0.8004
 A-DIIS (wt  1.000):  0.0000  1.0000
  DIIS coefficients:  0.0000  1.0000
 SCF Error: norm([F,P])=      0.008617989401, max([F,P])=      0.008343029399
 orbitals (Q,E):
 ---------------
 S :1...2            ( 1.00    -0.2422)  ( 0.00     0.0889)
 P :1...1            ( 0.00     0.4024)

 CYCLE    4
  SDIIS (wt  0.993):  0.1666  0.8334
 A-DIIS (wt  0.007):  0.0000  1.0000
  DIIS coefficients:  0.1654  0.8346
 SCF Error: norm([F,P])=      0.001732350026, max([F,P])=      0.001718616814
 orbitals (Q,E):
 ---------------
 S :1...2            ( 1.00    -0.2385)  ( 0.00     0.0908)
 P :1...1            ( 0.00     0.4054)

 CYCLE    5
  SDIIS (wt  1.000):  0.0236  0.9764
  DIIS coefficients:  0.0236  0.9764
 SCF Error: norm([F,P])=      0.000043673449, max([F,P])=      0.000039769875
 orbitals (Q,E):
 ---------------
 S :1...2            ( 1.00    -0.2386)  ( 0.00     0.0908)
 P :1...1            ( 0.00     0.4054)

 CYCLE    6
  SDIIS (wt  1.000): -0.0577  1.0577
  DIIS coefficients: -0.0577  1.0577
 SCF Error: norm([F,P])=      0.000002383805, max([F,P])=      0.000002158128
 orbitals (Q,E):
 ---------------
 S :1...2            ( 1.00    -0.2386)  ( 0.00     0.0908)
 P :1...1            ( 0.00     0.4054)

 CYCLE    7
  SDIIS (wt  1.000): -0.0032  1.0032
  DIIS coefficients: -0.0032  1.0032
 SCF Error: norm([F,P])=      0.000000007721, max([F,P])=      0.000000007228
 orbitals (Q,E):
 ---------------
 S :1...2            ( 1.00    -0.2386)  ( 0.00     0.0908)
 P :1...1            ( 0.00     0.4054)

 SCF CONVERGED

 CYCLE    8
1
 ***************************************************************************************************



                                                *******************
                                                *  R E S U L T S  *
                                                *******************
  
 *** Using FIT density in Focky
  SDIIS (wt  1.000):  0.0192  0.9808
  DIIS coefficients:  0.0192  0.9808
 SCF Error: norm([F,P])=      0.000000000151, max([F,P])=      0.000000000141

 Scaled ZORA Orbital Energies, per Irrep and Spin:
 =================================================
                        Occup              E (au)              E (eV)       Diff (eV) with prev. cycle
                        -----      --------------------        ------       --------------------------
 S
               1        1.000     -0.23861775226993E+00        -6.493               7.43E-09
               2        0.000      0.90791701709251E-01         2.471
               3        0.000      0.15217530108908E+01        41.409
 P
               1        0.000      0.40537978060393E+00        11.031


 Partially Occupied:
               1 S                -0.23861775226993E+00
  
 LUMO :        2 S                 0.90791701709251E-01
  


 Orbital Energies, all Irreps
 ========================================

 Irrep        no.  (spin)   Occup              E (au)                E (eV)
 ---------------------------------------------------------------------------
 S             1             1.00       -0.23861775226993E+00        -6.4931
 S             2             0.00        0.90791701709251E-01         2.4706
 P             1             0.00        0.40537978060393E+00        11.0309
 S             3             0.00        0.15217530108908E+01        41.4090


 All Electron Calculation, thus no Orbital Energies of the Core Orbitals are calculated



 =======================================
 M U L L I K E N   P O P U L A T I O N S
 =======================================
  
 The survey below gives for each atom:
 a) the total charge (Z minus electrons)
 b) the net spin polarization (nr of electrons spin-A minus spin-B)
 c) for each spin the atomic electron valence density (integrated) per L-value.

 Atom              Charge    Spin density          S         P         D         F
 ----              ------    ------------       ------    ------    ------    ------
 1 H              -0.0000                       1.0000    0.0000    0.0000    0.0000

 Populations of individual BAS functions
 ----------------------------------------
 1 H            0.2104  0.6788  0.1107  0.0000  0.0000  0.0000

 Gross Charges per Atom (Z minus electrons)
 ==========================================
            -0.0000
 Net Total: -0.00000000



 =======================================================================
 Electrostatic potential at the Nuclei due to electrons and other nuclei
 =======================================================================
  
         Atom                  Potential
         ----                  ---------
     1)   H                   0.94468022
 
 
 ========================
 No memory problems found
 ========================
 
 Maximum number of active allocate calls:         306
 
 *******************************************************************************

                             A D F   E X I T
 NORMAL TERMINATION



 =================
 Timing Statistics
 =================
  
 Total Used :                     CPU=        0.31      System=        0.03     Elapsed=        0.37

 Calls  Section                     ( Mean, Percentage )
 ---------------------------------------------------------------------------------------------------
     3  ><      ................      0.00    0.00             0.00    0.00             0.00    1.19
     1  INIT    ................      0.06   20.51             0.00   14.29             0.07   19.82
     1  GEOMET  ................      0.02    5.13             0.00   14.28             0.02    6.32
     1  INPUTA  ................      0.00    1.28             0.00    0.00             0.00    0.89
     1  MAINSY  ................      0.01    2.56             0.00   14.28             0.01    3.48
     1  SYMFIT  ................      0.00    0.00             0.00    0.00             0.00    0.42
     1  CORORT  ................      0.00    0.00             0.00    0.00             0.00    0.32
     1  SYMORB  ................      0.00    0.00             0.00    0.00             0.00    0.19
     1  CLSMAT  ................      0.00    1.28             0.00   14.28             0.00    1.31
     1  ORTHON  ................      0.00    1.28             0.00    0.00             0.00    1.29
     1  GENPT   ................      0.01    2.56             0.00    0.00             0.01    3.18
     1  PTBAS   ................      0.01    2.56             0.00    0.00             0.00    1.25
     8  FOCKY   ................      0.02   48.72             0.00   28.57             0.02   44.87
     8  FOCKTR  ................      0.00    1.28             0.00    0.00             0.00    1.10
     8  SDIIS   ................      0.00    3.85             0.00   14.28             0.00    5.50
     1  COREPS  ................      0.01    3.85             0.00    0.00             0.01    3.72
     1  POPAN   ................      0.00    1.28             0.00    0.00             0.00    1.20
     1  DEBYE   ................      0.00    1.28             0.00    0.00             0.00    0.48
     1  EXIT PROCEDURE .........      0.01    2.56             0.00    0.00             0.01    3.47


 Currently Open Files (EXIT00)
 ====================

 Unit    Access Format  Status   Type       Ident (file)
 -------------------------------------------------------
   3      SEQ    FORM   TRANSP  NORMAL      LOGFILE
                                          ( logfile )

 ***************************************************************************************************
 (LOGFILE)
 <Feb10-2023> <07:49:31>  DIRAC 2019  RunTime: Feb10-2023 07:49:31  Nodes: 1  Procs: 1
 <Feb10-2023> <07:49:31>  NORMAL TERMINATION
 <Feb10-2023> <07:49:31>  END
 <Feb10-2023> <07:49:31>  ADF 2019  RunTime: Feb10-2023 07:49:31  Nodes: 1  Procs: 1
 <Feb10-2023> <07:49:31>  Hydrogen (TZP)
 <Feb10-2023> <07:49:31>  RunType   : CREATE
 <Feb10-2023> <07:49:31>  Net Charge: 0 (Nuclei minus Electrons)
 <Feb10-2023> <07:49:31>  Symmetry  : ATOM
  Coordinates
    Atom         X           Y           Z   (Angstrom)
    1.H         0.000000    0.000000    0.000000
 <Feb10-2023> <07:49:31>  >>>> CORORT
 <Feb10-2023> <07:49:31>  >>>> CLSMAT
 <Feb10-2023> <07:49:31>  >>>> ORTHON
 <Feb10-2023> <07:49:31>  >>>> GENPT
 <Feb10-2023> <07:49:31>  Block Length=  64
 <Feb10-2023> <07:49:31>  >>>> PTBAS
 <Feb10-2023> <07:49:31>  >>>> CYCLE
 <Feb10-2023> <07:49:31>              |Error|         MaxErr       Wt(A-DIIS)
 <Feb10-2023> <07:49:31>      1      0.00000000      0.00000000
 <Feb10-2023> <07:49:31>      2      0.03153787      0.03011049
 <Feb10-2023> <07:49:31>      3      0.00861799      0.00834303    100.0
 <Feb10-2023> <07:49:31>      4      0.00173235      0.00171862      0.7
 <Feb10-2023> <07:49:31>      5      0.00004367      0.00003977      0.0
 <Feb10-2023> <07:49:31>      6      0.00000238      0.00000216      0.0
 <Feb10-2023> <07:49:31>      7      0.00000001      0.00000001      0.0
 <Feb10-2023> <07:49:31>  SCF converged
 <Feb10-2023> <07:49:31>      8      0.00000000      0.00000000      0.0
 <Feb10-2023> <07:49:31>  >>>> POPAN
 <Feb10-2023> <07:49:31>  >>>> DEBYE
 <Feb10-2023> <07:49:31>  NORMAL TERMINATION
 <Feb10-2023> <07:49:31>  END

 *******************************************************************************
 *                                                                             *
 *  -------------------------------------                                      *
 *   Amsterdam Density Functional  (ADF)         2019                          *
 *  -------------------------------------                                      *
 *                                               r74351 2019-04-25             *
 *                                                                             *
 *                                                                             *
 *                            =====================                            *
 *                            |                   |                            *
 *                            |     D I R A C     |                            *
 *                            |                   |                            *
 *                            =====================                            *
 *                                                                             *
 *                                                                             *
 *   Online information and documentation:  https://www.scm.com/support/       *
 *   E-mail:  support@scm.com   info@scm.com                                   *
 *                                                                             *
 *   Scientific publications using ADF results must be properly referenced     *
 *   See the User Manuals (or the web site) for recommended citations          *
 *   The terms and conditions of the End User License Agreement apply to       *
 *   the use of ADF, https://www.scm.com/license-terms/                        *
 *                                                                             *
 **********************  x86_64_linux_intel / intelmpi  ************************
 
 Licensed to: Dr. Carles Bo / Institute of Chemical Research of Catalonia ( (ICIQ) / Tarragona / Spain 2022-11-28 14:37:29
 SCM User ID: u7609
  
 DIRAC 2019  RunTime: Feb10-2023 07:49:31  Nodes: 1  Procs: 1

 Temporary files are created in /scratch/kid_0.1611280299

1
 PHOSPHORUS ATOM 1s CORE RELATIVISTIC, Point Nuc, A and c fro
 N J RN H ZN XION ANUC CLIGHT
 5000    7100.00000000197.36710137 15.00000000  0.00000000   30.973761  0.1370360E+03
  PH   PHI     EPS        DEL        DELRVR
  0.30  0.30     2500.00  0.00001000  0.00001000
 IDIRC  NC1  NDEBU NPRIN  IPUN IRCOR IWCOR
   1   300     0     0     0     0     1
   XALPHA      XLATTER      RNUC
  0.70000000  0.00000000  0.00000000 Point Charge
   XN   XL   XJ      XE          XZ      XDELL
  1.0  0.0  0.5    -600.000       2.000     0.00000
  2.0  0.0  0.5     -75.000       2.000     0.00000
  2.0  1.0  0.5     -70.000       2.000     0.00000
  2.0  1.0  1.5     -70.000       4.000     0.00000
  3.0  0.0  0.5     -25.000       2.000     0.00000
  3.0  1.0  0.5      -0.250       2.000     0.00000
  3.0  1.0  1.5      -0.250       1.000     0.00000
 ICORP=  0  NPCL=  0  DEMP=0.00  PEPS=0.000000
 R(1)=  0.1000000E-08 D=  0.1005080E+01 RNUC=  0.0000000E+00
 converged at cycle   47  DENSITY AVERAGING    0.3000
  MAXIMUM ERROR IN R.V(R) IS   0.93255186E-05
 Q,EY,EV,EZ,ESUM,ETOT,RHO  0.150000E+02 -0.290161E+02 -0.536820E+03 -0.814855E+03 -0.194417E+03 -0.340688E+03  0.340722E-13


 DIRAC CALCULATION
1                    PHOSPHORUS ATOM 1s CORE RELATIVISTIC, Point Nuc, A and c from libtc


 EXCHANGE COEFFICIENT=  0.7000000           TAIL CORRECTION=  0.           NUCLEAR RADIUS=  0.000E+00
0                       ORBITAL    N    L    J     ELECTRONS     EIGENVALUE                DELTA OF EIGENV.

                          1S1/2  1.0  0.0  0.5     2.000       -0.7640874E+02                 0.2597240E-06
                          2S1/2  2.0  0.0  0.5     2.000       -0.6353640E+01                 0.3482713E-07
                          2P1/2  2.0  1.0  0.5     2.000       -0.4588256E+01                 0.3010938E-07
                          2P3/2  2.0  1.0  1.5     4.000       -0.4554413E+01                 0.2993762E-07
                          3S1/2  3.0  0.0  0.5     2.000       -0.4844206E+00                 0.1693624E-07
                          3P1/2  3.0  1.0  0.5     2.000       -0.1770291E+00                 0.1234259E-07
                          3P3/2  3.0  1.0  1.5     1.000       -0.1750217E+00                 0.1224459E-07


                                        NUCLEAR CHARGE=   15.000000
                            INTEGRAL OF CHARGE DENSITY=   15.000000
                           SUM OF THE ORBITAL ENERGIES=   -194.4169
                                          TOTAL ENERGY=   -340.6884
                                        KINETIC ENERGY=    342.4034
                             NUCLEAR ATTRACTION ENERGY=   -814.8554
                             ELECTRON REPULSION ENERGY=    153.5256
                                       EXCHANGE ENERGY=    -21.7621

 *******************************************************************************

                             D I R A C   E X I T
 NORMAL TERMINATION



 =================
 Timing Statistics
 =================
  
 Total Used :                     CPU=        0.22      System=        0.00     Elapsed=        0.23

 Calls  Section                     ( Mean, Percentage )
 ---------------------------------------------------------------------------------------------------
     2  ><      ................      0.00    0.00             0.00    0.00             0.00    0.00
     1  EXIT PROCEDURE .........      0.22  100.00             0.00  100.00             0.23  100.00


 Currently Open Files (EXIT00)
 ====================

 Unit    Access Format  Status   Type       Ident (file)
 -------------------------------------------------------
   3      SEQ    FORM   TRANSP  NORMAL      LOGFILE
                                          ( logfile )
 
Create P   file=TZP-P.1s
XC
  GGA PBE
End
relativistic ZORA
Corepotentials t12.rel
End

 *******************************************************************************
 *                                                                             *
 *  -------------------------------------                                      *
 *   Amsterdam Density Functional  (ADF)         2019                          *
 *  -------------------------------------                                      *
 *                                               r74351 2019-04-25             *
 *                                                                             *
 *                                                                             *
 *                              =================                              *
 *                              |               |                              *
 *                              |     A D F     |                              *
 *                              |               |                              *
 *                              =================                              *
 *                                                                             *
 *                                                                             *
 *   Online information and documentation:  https://www.scm.com/support/       *
 *   E-mail:  support@scm.com   info@scm.com                                   *
 *                                                                             *
 *   Scientific publications using ADF results must be properly referenced     *
 *   See the User Manuals (or the web site) for recommended citations          *
 *   The terms and conditions of the End User License Agreement apply to       *
 *   the use of ADF, https://www.scm.com/license-terms/                        *
 *                                                                             *
 **********************  x86_64_linux_intel / intelmpi  ************************
 
 Licensed to: Dr. Carles Bo / Institute of Chemical Research of Catalonia ( (ICIQ) / Tarragona / Spain 2022-11-28 14:37:29
 SCM User ID: u7609
  
 ADF 2019  RunTime: Feb10-2023 07:49:32  Nodes: 1  Procs: 1

 Temporary files are created in /scratch/kid_0.849008444

 Phosphorus (TZP, 1s frozen)



 ===========================
 A T T A C H E D   F I L E S
 ===========================
  
 CREATE - Data File:    TZP-P.1s
                        Phosphorus (TZP, 1s frozen)
 Core Potentials:
         file : t12.rel



 ===============================
 M O D E L   P A R A M E T E R S
 ===============================
  
 DENSITY FUNCTIONAL POTENTIAL (scf)
    LDA:                               PW92                                    == Not Default ==
    Gradient Corrections:              PBEc PBEx                               == Not Default ==

 SPIN  (restricted / unrestr.)
    Molecule:                          Restricted                               

 OTHER ASPECTS
    Relativistic Corrections:          scalar (ZORA,MAPA)                      == Not Default ==

    Nuclear Charge Density Model:      Point Charge Nuclei                      
    Core Treatment:                    Frozen Orbital(s)                        

    Hyperfine or Zeeman Interaction:   ---                                      



 =====================================
 S Y M M E T R Y ,   E L E C T R O N S
 =====================================
  
 Symmetry: ATOM

 Irreducible Representations, including subspecies
 -------------------------------------------------
 S
 P:x  P:y  P:z
 D:z2  D:x2-y2  D:xy  D:xz  D:yz
 F:z3  F:z  F:xyz  F:z2x  F:z2y  F:x  F:y


 Configuration of Valence Electrons
 ==================================

          Occupation Numbers
          -------------------------------------------------
 S        2*2
 P        6 3
 D        0
 F        0
          -------------------------------------------------

 Total:   13

 Net Charge: 0 (Nuclei minus Electrons)

 Preset values for MO occupations will be applied through SCF cycle no. 1000000
 Thereafter, the program will assign electrons to MOs that are spatially
 similar to the occupied MOs in a "reference" cycle ("KeepOrbitals").
 The reference cycle is always the PREVIOUS cycle: it will evolve with
 the SCF procedure.



 ================================
 (Slater-type)  F U N C T I O N S  ***  (Basis and Fit)  ***
 ================================
  

 Atom Type    1  (P)
 ==============

 Valence Basis Sets:  12
 -----------------------
   1 S   12.550000
   2 S    5.600000
   2 S    4.050000
   2 P    7.450000
   2 P    4.100000
   3 S    1.300000
   3 S    1.850000
   3 S    2.650000
   3 P    0.850000
   3 P    1.300000
   3 P    2.050000
   3 D    1.900000

 Frozen Core Shells
 ------------------
    S:  1


 BAS: List of all Elementary Cartesian Basis Functions
 =====================================================

 The numbering in the list below (to the right of the function characteristics) is referred
 to in print-outs of MO eigenvectors and Mulliken populations in the BAS representation
 (as contrasted to the SFO representation).

 Notes:
 1. The functions are characterized by a polynomial prefactor (powers of x,y,z and r) and
    an exponential decay factor alpha.
 2. Since the basis sets are specific for an atom TYPE, the individual functions occur on
    all atoms of that type.
 3. The word 'Core' in the left margin signals that it is a Core Function (CF) : not a
    degree of freedom in the valence set, but only used to ensure orthogonalization of
    the other valence basis functions on the frozen Core Orbitals.


 (power of) X  Y  Z  R     Alpha  on Atom
            ==========     =====     ==========

 P                                    1
                                  ---------------------------------------------------------------------------
    Core    0  0  0  0    12.550      1
            0  0  0  1     5.600      2
            0  0  0  1     4.050      3
            1  0  0  0     7.450      4
            0  1  0  0     7.450      5
            0  0  1  0     7.450      6
            1  0  0  0     4.100      7
            0  1  0  0     4.100      8
            0  0  1  0     4.100      9
            0  0  0  2     1.300     10
            0  0  0  2     1.850     11
            0  0  0  2     2.650     12
            1  0  0  1     0.850     13
            0  1  0  1     0.850     14
            0  0  1  1     0.850     15
            1  0  0  1     1.300     16
            0  1  0  1     1.300     17
            0  0  1  1     1.300     18
            1  0  0  1     2.050     19
            0  1  0  1     2.050     20
            0  0  1  1     2.050     21
            2  0  0  0     1.900     22
            1  1  0  0     1.900     23
            1  0  1  0     1.900     24
            0  2  0  0     1.900     25
            0  1  1  0     1.900     26
            0  0  2  0     1.900     27

 Total number of charge fitting functions (nprimf)       106
 Total number of Cartesian basis functions (naos)         27
 Total number of Cartesian core functions  (ncos)          1



 BAS: List of all Elementary Cartesian Basis Functions
 =====================================================

 The numbering in the list below (to the right of the function characteristics) is referred
 to in print-outs of MO eigenvectors and Mulliken populations in the BAS representation
 (as contrasted to the SFO representation).

 Notes:
 1. The functions are characterized by a polynomial prefactor (powers of x,y,z and r) and
    an exponential decay factor alpha.
 2. Since the basis sets are specific for an atom TYPE, the individual functions occur on
    all atoms of that type.
 3. The word 'Core' in the left margin signals that it is a Core Function (CF) : not a
    degree of freedom in the valence set, but only used to ensure orthogonalization of
    the other valence basis functions on the frozen Core Orbitals.


 (power of) X  Y  Z  R     Alpha  on Atom
            ==========     =====     ==========

 P                                    1
                                  ---------------------------------------------------------------------------
    Core    0  0  0  0    12.550      1
            0  0  0  1     5.600      2
            0  0  0  1     4.050      3
            1  0  0  0     7.450      4
            0  1  0  0     7.450      5
            0  0  1  0     7.450      6
            1  0  0  0     4.100      7
            0  1  0  0     4.100      8
            0  0  1  0     4.100      9
            0  0  0  2     1.300     10
            0  0  0  2     1.850     11
            0  0  0  2     2.650     12
            1  0  0  1     0.850     13
            0  1  0  1     0.850     14
            0  0  1  1     0.850     15
            1  0  0  1     1.300     16
            0  1  0  1     1.300     17
            0  0  1  1     1.300     18
            1  0  0  1     2.050     19
            0  1  0  1     2.050     20
            0  0  1  1     2.050     21
            2  0  0  0     1.900     22
            1  1  0  0     1.900     23
            1  0  1  0     1.900     24
            0  2  0  0     1.900     25
            0  1  1  0     1.900     26
            0  0  2  0     1.900     27
1
 ***************************************************************************************************



                                              ***********************
                                              *  T E C H N I C A L  *
                                              ***********************
  



 =============================================================
 P A R A L L E L I Z A T I O N  and  V E C T O R I Z A T I O N
 =============================================================
  
 Nr of parallel processes:                                1
 Maximum vector length in NumInt loops:                 128



 =====================
 S C F   U P D A T E S
 =====================
  
 Max. nr. of cycles:                               300
 Convergence criterion:                              0.0000000100
   secondary criterion:                              0.0000000100

 Mix parameter (when DIIS does not apply):           0.2000000000
 Special mix parameter for the first cycle:          1.0000000000
 Mixed ADIIS+SDIIS will be used                  
    Max number of expansion vectors:                10
    Pure ADIIS when Max([F,P]) is above              0.1000000000
    Pure SDIIS when Max([F,P]) is below              0.0010000000
 Automatic ElectronSmearing (in case of problematic SCF convergence) disabled



 =================
 P R E C I S I O N  ***  (General: NumInt, NeglectFunctionTails, ...)  ***
 =================
  

 NumInt:           Target precision:                12.0000000000
 -------           Initial precision:               10.0000000000
                   Min. precision (optimization):   10.0000000000

 Neglect Functions:          Basis functions:        0.1000000000E-13
 ------------------          Fit functions:          0.1000000000E-13



 ===========================
 L I N E A R   S C A L I N G
 ===========================
  

 Cut-off radii density fit:                        0.1000000000E-97
 Overlap cut-off criterion AO matrix elements:     0.1000000000E-97
 Cut-offs for Coulomb potential and fitted density:0.1000000000E-97
 Cut-off criterion for Coulomb multipole terms:    0.1000000000E-97
 Progressive Convergence parameter:                 0.000000000    
1
 ***************************************************************************************************



                                            ***************************
                                            *  C O M P U T A T I O N  *
                                            ***************************
  

 Number of elements of the density matrix on this node (used, total):       378       378



 ===========================================
 Numerical Integration : Fuzzy Cells (Becke)
 ===========================================
  
 Becke grid quality: VERYGOOD       
  
 Lebedev angular grid order:             min:  13 max:  41
 Nr. of radial points:                   min:  76 max:  76

 Total nr. of points:         76
 Nr. of blocks:                1
 Block length:                76
 Nr. of dummy points:          0


 Test of Precision of the Numerical Integration Grid
 ===================================================

 Integral of the Total Core Density:                   1.99999999908170
 Relative Error:                                      -4.592E-10



 ========================
 Density Fitting (zlmFit)
 ========================
  
 ZlmFit Fit Quality: VERYGOOD       
  
 Max L-expansion:                        min:   0 max:   0
 Nr. of radial interpolation points:     min: 190 max: 190



 =====
 S C F  ***  ScaSCF  ***
 =====
  

 CYCLE    1
 SCF Error: norm([F,P])=      0.000000000000, max([F,P])=      0.000000000000
 orbitals (Q,E):
 ---------------
 S :1...5            ( 2.00   -23.0992)  ( 2.00    -9.8031)  ( 0.00    -5.2886)  ( 0.00    -3.1440)
                     ( 0.00    -1.2993)
 P :1...5            ( 6.00   -22.3278)  ( 3.00    -9.2322)  ( 0.00    -4.8937)  ( 0.00    -3.0142)
                     ( 0.00    -1.9614)
 D :1...1            ( 0.00    -6.4318)

 CYCLE    2
  SDIIS (wt  0.000):  1.0000  0.0000
 A-DIIS (wt  1.000):  0.1145  0.8855
  DIIS coefficients:  0.1145  0.8855
 SCF Error: norm([F,P])=     18.574199763001, max([F,P])=      5.729460424591
 orbitals (Q,E):
 ---------------
 S :1...3            ( 2.00    -4.5689)  ( 2.00    -0.5693)  ( 0.00    -0.0589)
 P :1...3            ( 6.00    -2.5820)  ( 3.00    -0.3376)  ( 0.00    -0.0879)
 D :1...1            ( 0.00     0.3219)

 CYCLE    3
  SDIIS (wt  0.000):  0.2387  0.7613
 A-DIIS (wt  1.000):  0.0000  1.0000
  DIIS coefficients:  0.0000  1.0000
 SCF Error: norm([F,P])=      7.892246338364, max([F,P])=      2.592954182835
 orbitals (Q,E):
 ---------------
 S :1...3            ( 2.00    -8.2146)  ( 2.00    -0.9843)  ( 0.00    -0.0433)
 P :1...3            ( 6.00    -6.5635)  ( 3.00    -0.6019)  ( 0.00    -0.0049)
 D :1...1            ( 0.00    -0.0107)

 CYCLE    4
  SDIIS (wt  0.000): -0.0871  0.2952  0.7919
 A-DIIS (wt  1.000):  0.0000  0.1757  0.8243
  DIIS coefficients:  0.0000  0.1757  0.8243
 SCF Error: norm([F,P])=      4.387176641077, max([F,P])=      1.761626650861
 orbitals (Q,E):
 ---------------
 S :1...3            ( 2.00    -5.8126)  ( 2.00    -0.3504)  ( 0.00     0.1791)
 P :1...3            ( 6.00    -3.9508)  ( 3.00    -0.0835)  ( 0.00     0.1310)
 D :1...1            ( 0.00     0.5508)

 CYCLE    5
  SDIIS (wt  0.000): -0.0109 -0.0602  0.1941  0.8770
 A-DIIS (wt  1.000):  0.0000  0.0000  0.0000  1.0000
  DIIS coefficients:  0.0000  0.0000  0.0000  1.0000
 SCF Error: norm([F,P])=      1.324345584458, max([F,P])=      0.466956153840
 orbitals (Q,E):
 ---------------
 S :1...3            ( 2.00    -6.8907)  ( 2.00    -0.7073)  ( 0.00     0.0342)
 P :1...3            ( 6.00    -5.0922)  ( 3.00    -0.3650)  ( 0.00     0.0330)
 D :1...1            ( 0.00     0.1959)

 CYCLE    6
  SDIIS (wt  0.000):  0.0000 -0.0289 -0.0346  0.4584  0.6050
 A-DIIS (wt  1.000):  0.0000  0.0000  0.0000  0.3111  0.6889
  DIIS coefficients:  0.0000  0.0000  0.0000  0.3111  0.6889
 SCF Error: norm([F,P])=      0.894656609953, max([F,P])=      0.328552344502
 orbitals (Q,E):
 ---------------
 S :1...3            ( 2.00    -6.3109)  ( 2.00    -0.4896)  ( 0.00     0.1210)
 P :1...3            ( 6.00    -4.4823)  ( 3.00    -0.1842)  ( 0.00     0.0870)
 D :1...1            ( 0.00     0.4072)

 CYCLE    7
  SDIIS (wt  0.437):  0.0003 -0.0004 -0.0106 -0.0415  0.1385  0.9137
 A-DIIS (wt  0.563):  0.0000  0.0000  0.0000  0.0000  0.0000  1.0000
  DIIS coefficients:  0.0001 -0.0002 -0.0046 -0.0181  0.0605  0.9623
 SCF Error: norm([F,P])=      0.152753231532, max([F,P])=      0.056768903175
 orbitals (Q,E):
 ---------------
 S :1...3            ( 2.00    -6.4268)  ( 2.00    -0.5264)  ( 0.00     0.1084)
 P :1...3            ( 6.00    -4.6039)  ( 3.00    -0.2126)  ( 0.00     0.0772)
 D :1...1            ( 0.00     0.3702)

 CYCLE    8
  SDIIS (wt  0.777): -0.0000 -0.0007  0.0025  0.0136 -0.0400  0.1180  0.9067
 A-DIIS (wt  0.223):  0.0000  0.0000  0.0000  0.0000  0.0000  0.0410  0.9590
  DIIS coefficients: -0.0000 -0.0005  0.0019  0.0105 -0.0311  0.1008  0.9184
 SCF Error: norm([F,P])=      0.062117061218, max([F,P])=      0.023065151090
 orbitals (Q,E):
 ---------------
 S :1...3            ( 2.00    -6.3871)  ( 2.00    -0.5116)  ( 0.00     0.1144)
 P :1...3            ( 6.00    -4.5623)  ( 3.00    -0.2008)  ( 0.00     0.0809)
 D :1...1            ( 0.00     0.3849)

 CYCLE    9
  SDIIS (wt  0.976):  0.0000  0.0000 -0.0001 -0.0000 -0.0006  0.0067  0.1535  0.8406
 A-DIIS (wt  0.024):  0.0000  0.0000  0.0000  0.0000  0.0000  0.0000  0.0000  1.0000
  DIIS coefficients:  0.0000  0.0000 -0.0001 -0.0000 -0.0006  0.0065  0.1498  0.8445
 SCF Error: norm([F,P])=      0.008957667695, max([F,P])=      0.003406470825
 orbitals (Q,E):
 ---------------
 S :1...3            ( 2.00    -6.3923)  ( 2.00    -0.5136)  ( 0.00     0.1136)
 P :1...3            ( 6.00    -4.5677)  ( 3.00    -0.2024)  ( 0.00     0.0804)
 D :1...1            ( 0.00     0.3830)

 CYCLE   10
  SDIIS (wt  1.000): -0.0000  0.0000 -0.0000 -0.0000  0.0000  0.0002  0.0031  0.0372  0.9595
  DIIS coefficients: -0.0000  0.0000 -0.0000 -0.0000  0.0000  0.0002  0.0031  0.0372  0.9595
 SCF Error: norm([F,P])=      0.000163653333, max([F,P])=      0.000063717608
 orbitals (Q,E):
 ---------------
 S :1...3            ( 2.00    -6.3922)  ( 2.00    -0.5136)  ( 0.00     0.1136)
 P :1...3            ( 6.00    -4.5676)  ( 3.00    -0.2024)  ( 0.00     0.0804)
 D :1...1            ( 0.00     0.3830)

 CYCLE   11
  SDIIS (wt  1.000):  0.0000  0.0000 -0.0000 -0.0002 -0.0016 -0.0226  1.0244
  DIIS coefficients:  0.0000  0.0000 -0.0000 -0.0002 -0.0016 -0.0226  1.0244
 SCF Error: norm([F,P])=      0.000000175567, max([F,P])=      0.000000090743
 orbitals (Q,E):
 ---------------
 S :1...3            ( 2.00    -6.3922)  ( 2.00    -0.5136)  ( 0.00     0.1136)
 P :1...3            ( 6.00    -4.5676)  ( 3.00    -0.2024)  ( 0.00     0.0804)
 D :1...1            ( 0.00     0.3830)

 CYCLE   12
  SDIIS (wt  1.000): -0.0000 -0.0000 -0.0005 -0.0247  1.0252
  DIIS coefficients: -0.0000 -0.0000 -0.0005 -0.0247  1.0252
 SCF Error: norm([F,P])=      0.000000002285, max([F,P])=      0.000000001028
 orbitals (Q,E):
 ---------------
 S :1...3            ( 2.00    -6.3922)  ( 2.00    -0.5136)  ( 0.00     0.1136)
 P :1...3            ( 6.00    -4.5676)  ( 3.00    -0.2024)  ( 0.00     0.0804)
 D :1...1            ( 0.00     0.3830)

 SCF CONVERGED

 CYCLE   13
1
 ***************************************************************************************************



                                                *******************
                                                *  R E S U L T S  *
                                                *******************
  
 *** Using FIT density in Focky
  SDIIS (wt  1.000):  0.0000  0.0017  0.0326  0.9657
  DIIS coefficients:  0.0000  0.0017  0.0326  0.9657
 SCF Error: norm([F,P])=      0.000000000342, max([F,P])=      0.000000000172

 Scaled ZORA Orbital Energies, per Irrep and Spin:
 =================================================
                        Occup              E (au)              E (eV)       Diff (eV) with prev. cycle
                        -----      --------------------        ------       --------------------------
 S
               1        2.000     -0.63922369009056E+01      -173.942               8.75E-09
               2        2.000     -0.51357095789531E+00       -13.975               6.90E-09
               3        0.000      0.11360419341918E+00         3.091
               4        0.000      0.13218598554508E+01        35.970
               5        0.000      0.10430275582036E+02       283.822
 P
               1        6.000     -0.45676340295409E+01      -124.292               8.74E-09
               2        3.000     -0.20235270966723E+00        -5.506               5.88E-09
               3        0.000      0.80400995303665E-01         2.188
               4        0.000      0.71612464912880E+00        19.487
               5        0.000      0.95392466931961E+01       259.576
 D
               1        0.000      0.38299165710671E+00        10.422


 Partially Occupied:
               2 P                -0.20235270966723E+00
  
 HOMO :        2 S                -0.51357095789531E+00
 LUMO :        3 P                 0.80400995303665E-01
  


 Orbital Energies, all Irreps
 ========================================

 Irrep        no.  (spin)   Occup              E (au)                E (eV)
 ---------------------------------------------------------------------------
 S             1             2.00       -0.63922369009056E+01      -173.9416
 P             1             6.00       -0.45676340295409E+01      -124.2916
 S             2             2.00       -0.51357095789531E+00       -13.9750
 P             2             3.00       -0.20235270966723E+00        -5.5063
 P             3             0.00        0.80400995303665E-01         2.1878
 S             3             0.00        0.11360419341918E+00         3.0913
 D             1             0.00        0.38299165710671E+00        10.4217
 P             4             0.00        0.71612464912880E+00        19.4867
 S             4             0.00        0.13218598554508E+01        35.9696
 P             5             0.00        0.95392466931961E+01       259.5761
 S             5             0.00        0.10430275582036E+02       283.8222


 Scaled ZORA Orbital Energies of the Core Orbitals:
 ==================================================

 (Note that the atoms are grouped by atomtype, see the labels, and may hence NOT be in input order)

 AtomType  Orbital  Atom                   E (au)                        E (eV)
 --------  -------  ----           --------------------        ----------------
 P           1S        1          -0.76588588395026E+02               -2084.082



 =======================================
 M U L L I K E N   P O P U L A T I O N S
 =======================================
  
 The survey below gives for each atom:
 a) the total charge (Z minus electrons)
 b) the net spin polarization (nr of electrons spin-A minus spin-B)
 c) for each spin the atomic electron valence density (integrated) per L-value.

 Atom              Charge    Spin density          S         P         D         F
 ----              ------    ------------       ------    ------    ------    ------
 1 P              -0.0000                       4.0000    9.0000    0.0000    0.0000

 Populations of individual BAS functions
 ----------------------------------------
 1 P           -0.0481  1.4990  0.5077  0.7973  0.7973  0.7973  1.2052  1.2052  1.2052  0.3372
                1.0986  0.6057  0.1369  0.1369  0.1369  0.4144  0.4144  0.4144  0.4462  0.4462
                0.4462  0.0000  0.0000  0.0000  0.0000  0.0000  0.0000

 Gross Charges per Atom (Z minus electrons)
 ==========================================
            -0.0000
 Net Total: -0.00000000



 =======================================================================
 Electrostatic potential at the Nuclei due to electrons and other nuclei
 =======================================================================
  
         Atom                  Potential
         ----                  ---------
     1)   P                  54.30955117
 
 
 ========================
 No memory problems found
 ========================
 
 Maximum number of active allocate calls:         389
 
 *******************************************************************************

                             A D F   E X I T
 NORMAL TERMINATION



 =================
 Timing Statistics
 =================
  
 Total Used :                     CPU=        0.53      System=        0.04     Elapsed=        0.60

 Calls  Section                     ( Mean, Percentage )
 ---------------------------------------------------------------------------------------------------
     3  ><      ................      0.00    0.00             0.00   11.11             0.00    0.74
     1  INIT    ................      0.07   12.88             0.00    0.00             0.07   12.18
     1  GEOMET  ................      0.01    1.52             0.01   22.22             0.02    4.01
     1  INPUTA  ................      0.00    0.76             0.00    0.00             0.00    0.57
     1  MAINSY  ................      0.00    0.00             0.01   33.33             0.01    2.38
     1  SYMFIT  ................      0.00    0.00             0.00    0.00             0.00    0.27
     1  CORORT  ................      0.00    0.76             0.00    0.00             0.00    0.25
     1  SYMORB  ................      0.00    0.00             0.00    0.00             0.00    0.14
     1  CLSMAT  ................      0.00    0.76             0.00    0.00             0.01    0.89
     1  ORTHON  ................      0.00    0.76             0.00    0.00             0.01    0.92
     1  GENPT   ................      0.02    3.03             0.00    0.00             0.02    2.80
     1  PTBAS   ................      0.00    0.76             0.00    0.00             0.01    0.85
    13  FOCKY   ................      0.03   66.67             0.00   22.22             0.03   59.57
    13  FOCKTR  ................      0.00    2.27             0.00    0.00             0.00    1.30
    13  SDIIS   ................      0.00    3.79             0.00    0.00             0.00    5.97
     1  COREPS  ................      0.02    3.79             0.00    0.00             0.02    3.73
     1  POPAN   ................      0.00    0.76             0.00    0.00             0.01    0.83
     1  DEBYE   ................      0.00    0.00             0.00    0.00             0.00    0.31
     1  EXIT PROCEDURE .........      0.01    1.52             0.00   11.11             0.01    2.29


 Currently Open Files (EXIT00)
 ====================

 Unit    Access Format  Status   Type       Ident (file)
 -------------------------------------------------------
   3      SEQ    FORM   TRANSP  NORMAL      LOGFILE
                                          ( logfile )

 ***************************************************************************************************
 (LOGFILE)
 <Feb10-2023> <07:49:31>  DIRAC 2019  RunTime: Feb10-2023 07:49:31  Nodes: 1  Procs: 1
 <Feb10-2023> <07:49:31>  NORMAL TERMINATION
 <Feb10-2023> <07:49:31>  END
 <Feb10-2023> <07:49:31>  ADF 2019  RunTime: Feb10-2023 07:49:31  Nodes: 1  Procs: 1
 <Feb10-2023> <07:49:31>  Hydrogen (TZP)
 <Feb10-2023> <07:49:31>  RunType   : CREATE
 <Feb10-2023> <07:49:31>  Net Charge: 0 (Nuclei minus Electrons)
 <Feb10-2023> <07:49:31>  Symmetry  : ATOM
  Coordinates
    Atom         X           Y           Z   (Angstrom)
    1.H         0.000000    0.000000    0.000000
 <Feb10-2023> <07:49:31>  >>>> CORORT
 <Feb10-2023> <07:49:31>  >>>> CLSMAT
 <Feb10-2023> <07:49:31>  >>>> ORTHON
 <Feb10-2023> <07:49:31>  >>>> GENPT
 <Feb10-2023> <07:49:31>  Block Length=  64
 <Feb10-2023> <07:49:31>  >>>> PTBAS
 <Feb10-2023> <07:49:31>  >>>> CYCLE
 <Feb10-2023> <07:49:31>              |Error|         MaxErr       Wt(A-DIIS)
 <Feb10-2023> <07:49:31>      1      0.00000000      0.00000000
 <Feb10-2023> <07:49:31>      2      0.03153787      0.03011049
 <Feb10-2023> <07:49:31>      3      0.00861799      0.00834303    100.0
 <Feb10-2023> <07:49:31>      4      0.00173235      0.00171862      0.7
 <Feb10-2023> <07:49:31>      5      0.00004367      0.00003977      0.0
 <Feb10-2023> <07:49:31>      6      0.00000238      0.00000216      0.0
 <Feb10-2023> <07:49:31>      7      0.00000001      0.00000001      0.0
 <Feb10-2023> <07:49:31>  SCF converged
 <Feb10-2023> <07:49:31>      8      0.00000000      0.00000000      0.0
 <Feb10-2023> <07:49:31>  >>>> POPAN
 <Feb10-2023> <07:49:31>  >>>> DEBYE
 <Feb10-2023> <07:49:31>  NORMAL TERMINATION
 <Feb10-2023> <07:49:31>  END
 <Feb10-2023> <07:49:31>  DIRAC 2019  RunTime: Feb10-2023 07:49:31  Nodes: 1  Procs: 1
 <Feb10-2023> <07:49:32>  NORMAL TERMINATION
 <Feb10-2023> <07:49:32>  END
 <Feb10-2023> <07:49:32>  ADF 2019  RunTime: Feb10-2023 07:49:32  Nodes: 1  Procs: 1
 <Feb10-2023> <07:49:32>  Phosphorus (TZP, 1s frozen)
 <Feb10-2023> <07:49:32>  RunType   : CREATE
 <Feb10-2023> <07:49:32>  Net Charge: 0 (Nuclei minus Electrons)
 <Feb10-2023> <07:49:32>  Symmetry  : ATOM
  Coordinates
    Atom         X           Y           Z   (Angstrom)
    1.P         0.000000    0.000000    0.000000
 <Feb10-2023> <07:49:32>  >>>> CORORT
 <Feb10-2023> <07:49:32>  >>>> CLSMAT
 <Feb10-2023> <07:49:32>  >>>> ORTHON
 <Feb10-2023> <07:49:32>  >>>> GENPT
 <Feb10-2023> <07:49:32>  Block Length=  76
 <Feb10-2023> <07:49:32>  >>>> PTBAS
 <Feb10-2023> <07:49:32>  >>>> CYCLE
 <Feb10-2023> <07:49:32>              |Error|         MaxErr       Wt(A-DIIS)
 <Feb10-2023> <07:49:32>      1      0.00000000      0.00000000
 <Feb10-2023> <07:49:32>      2     18.57419976      5.72946042    100.0
 <Feb10-2023> <07:49:32>      3      7.89224634      2.59295418    100.0
 <Feb10-2023> <07:49:32>      4      4.38717664      1.76162665    100.0
 <Feb10-2023> <07:49:32>      5      1.32434558      0.46695615    100.0
 <Feb10-2023> <07:49:32>      6      0.89465661      0.32855234    100.0
 <Feb10-2023> <07:49:32>      7      0.15275323      0.05676890     56.3
 <Feb10-2023> <07:49:32>      8      0.06211706      0.02306515     22.3
 <Feb10-2023> <07:49:32>      9      0.00895767      0.00340647      2.4
 <Feb10-2023> <07:49:32>     10      0.00016365      0.00006372      0.0
 <Feb10-2023> <07:49:32>     11      0.00000018      0.00000009      0.0
 <Feb10-2023> <07:49:32>     12      0.00000000      0.00000000      0.0
 <Feb10-2023> <07:49:32>  SCF converged
 <Feb10-2023> <07:49:32>     13      0.00000000      0.00000000      0.0
 <Feb10-2023> <07:49:32>  >>>> POPAN
 <Feb10-2023> <07:49:32>  >>>> DEBYE
 <Feb10-2023> <07:49:32>  NORMAL TERMINATION
 <Feb10-2023> <07:49:32>  END

 *******************************************************************************
 *                                                                             *
 *  -------------------------------------                                      *
 *   Amsterdam Density Functional  (ADF)         2019                          *
 *  -------------------------------------                                      *
 *                                               r74351 2019-04-25             *
 *                                                                             *
 *                                                                             *
 *                            =====================                            *
 *                            |                   |                            *
 *                            |     D I R A C     |                            *
 *                            |                   |                            *
 *                            =====================                            *
 *                                                                             *
 *                                                                             *
 *   Online information and documentation:  https://www.scm.com/support/       *
 *   E-mail:  support@scm.com   info@scm.com                                   *
 *                                                                             *
 *   Scientific publications using ADF results must be properly referenced     *
 *   See the User Manuals (or the web site) for recommended citations          *
 *   The terms and conditions of the End User License Agreement apply to       *
 *   the use of ADF, https://www.scm.com/license-terms/                        *
 *                                                                             *
 **********************  x86_64_linux_intel / intelmpi  ************************
 
 Licensed to: Dr. Carles Bo / Institute of Chemical Research of Catalonia ( (ICIQ) / Tarragona / Spain 2022-11-28 14:37:29
 SCM User ID: u7609
  
 DIRAC 2019  RunTime: Feb10-2023 07:49:32  Nodes: 1  Procs: 1

 Temporary files are created in /scratch/kid_0.1019306240

1
 MOLYBDENUM ATOM 3d CORE RELATIVISTIC, Point Nuc, A and c fro
 N J RN H ZN XION ANUC CLIGHT
 5000   15100.00000000197.36710137 42.00000000  0.00000000   97.905406  0.1370360E+03
  PH   PHI     EPS        DEL        DELRVR
  0.30  0.30     2500.00  0.00001000  0.00001000
 IDIRC  NC1  NDEBU NPRIN  IPUN IRCOR IWCOR
   1   300     0     0     0     0     9
   XALPHA      XLATTER      RNUC
  0.70000000  0.00000000  0.00000000 Point Charge
   XN   XL   XJ      XE          XZ      XDELL
  1.0  0.0  0.5   -1500.000       2.000     0.00000
  2.0  0.0  0.5    -325.000       2.000     0.00000
  2.0  1.0  0.5    -325.000       2.000     0.00000
  2.0  1.0  1.5    -325.000       4.000     0.00000
  3.0  0.0  0.5     -70.000       2.000     0.00000
  3.0  1.0  0.5     -70.000       2.000     0.00000
  3.0  1.0  1.5     -70.000       4.000     0.00000
  3.0  2.0  1.5     -60.000       4.000     0.00000
  3.0  2.0  2.5     -60.000       6.000     0.00000
  4.0  0.0  0.5     -10.000       2.000     0.00000
  4.0  1.0  0.5     -10.000       2.000     0.00000
  4.0  1.0  1.5     -10.000       4.000     0.00000
  4.0  2.0  1.5      -1.000       4.000     0.00000
  4.0  2.0  2.5      -1.000       1.000     0.00000
  5.0  0.0  0.5      -0.500       1.000     0.00000
 ICORP=  0  NPCL=  0  DEMP=0.00  PEPS=0.000000
 R(1)=  0.1000000E-08 D=  0.1005080E+01 RNUC=  0.0000000E+00
 converged at cycle   41  DENSITY AVERAGING    0.2400
  MAXIMUM ERROR IN R.V(R) IS   0.93203452E-05
 Q,EY,EV,EZ,ESUM,ETOT,RHO  0.420000E+02 -0.161898E+03 -0.662509E+04 -0.978397E+04 -0.242700E+04 -0.404691E+04  0.342495E-11


 DIRAC CALCULATION
1                    MOLYBDENUM ATOM 3d CORE RELATIVISTIC, Point Nuc, A and c from libtc


 EXCHANGE COEFFICIENT=  0.7000000           TAIL CORRECTION=  0.           NUCLEAR RADIUS=  0.000E+00
0                       ORBITAL    N    L    J     ELECTRONS     EIGENVALUE                DELTA OF EIGENV.

                          1S1/2  1.0  0.0  0.5     2.000       -0.7276812E+03                 0.2822496E-04
                          2S1/2  2.0  0.0  0.5     2.000       -0.1028194E+03                 0.1725465E-04
                          2P1/2  2.0  1.0  0.5     2.000       -0.9468016E+02                 0.1864325E-04
                          2P3/2  2.0  1.0  1.5     4.000       -0.9076266E+02                 0.1832345E-04
                          3S1/2  3.0  0.0  0.5     2.000       -0.1747094E+02                 0.5979346E-05
                          3P1/2  3.0  1.0  0.5     2.000       -0.1436574E+02                 0.6275079E-05
                          3P3/2  3.0  1.0  1.5     4.000       -0.1371946E+02                 0.5984426E-05
                          3D3/2  3.0  2.0  1.5     4.000       -0.8203697E+01                 0.6709395E-05
                          3D5/2  3.0  2.0  2.5     6.000       -0.8081013E+01                 0.6610438E-05
                          4S1/2  4.0  0.0  0.5     2.000       -0.2338238E+01                 0.2446887E-06
                          4P1/2  4.0  1.0  0.5     2.000       -0.1452045E+01                 0.2971982E-06
                          4P3/2  4.0  1.0  1.5     4.000       -0.1358936E+01                 0.3186552E-06
                          4D3/2  4.0  2.0  1.5     4.000       -0.1184046E+00                 0.3378248E-06
                          4D5/2  4.0  2.0  2.5     1.000       -0.1108976E+00                 0.3342679E-06
                          5S1/2  5.0  0.0  0.5     1.000       -0.1320069E+00                 0.9757102E-07


                                        NUCLEAR CHARGE=   42.000000
                            INTEGRAL OF CHARGE DENSITY=   42.000000
                           SUM OF THE ORBITAL ENERGIES=  -2426.9970
                                          TOTAL ENERGY=  -4046.9128
                                        KINETIC ENERGY=   4198.0886
                             NUCLEAR ATTRACTION ENERGY=  -9783.9685
                             ELECTRON REPULSION ENERGY=   1660.3903
                                       EXCHANGE ENERGY=   -121.4232

 *******************************************************************************

                             D I R A C   E X I T
 NORMAL TERMINATION



 =================
 Timing Statistics
 =================
  
 Total Used :                     CPU=        0.35      System=        0.01     Elapsed=        0.37

 Calls  Section                     ( Mean, Percentage )
 ---------------------------------------------------------------------------------------------------
     2  ><      ................      0.00    0.00             0.00    0.00             0.00    0.00
     1  EXIT PROCEDURE .........      0.35  100.00             0.01  100.00             0.37  100.00


 Currently Open Files (EXIT00)
 ====================

 Unit    Access Format  Status   Type       Ident (file)
 -------------------------------------------------------
   3      SEQ    FORM   TRANSP  NORMAL      LOGFILE
                                          ( logfile )
 
Create Mo   file=TZP-Mo.3d
XC
  GGA PBE
End
relativistic ZORA
Corepotentials t12.rel
End

 *******************************************************************************
 *                                                                             *
 *  -------------------------------------                                      *
 *   Amsterdam Density Functional  (ADF)         2019                          *
 *  -------------------------------------                                      *
 *                                               r74351 2019-04-25             *
 *                                                                             *
 *                                                                             *
 *                              =================                              *
 *                              |               |                              *
 *                              |     A D F     |                              *
 *                              |               |                              *
 *                              =================                              *
 *                                                                             *
 *                                                                             *
 *   Online information and documentation:  https://www.scm.com/support/       *
 *   E-mail:  support@scm.com   info@scm.com                                   *
 *                                                                             *
 *   Scientific publications using ADF results must be properly referenced     *
 *   See the User Manuals (or the web site) for recommended citations          *
 *   The terms and conditions of the End User License Agreement apply to       *
 *   the use of ADF, https://www.scm.com/license-terms/                        *
 *                                                                             *
 **********************  x86_64_linux_intel / intelmpi  ************************
 
 Licensed to: Dr. Carles Bo / Institute of Chemical Research of Catalonia ( (ICIQ) / Tarragona / Spain 2022-11-28 14:37:29
 SCM User ID: u7609
  
 ADF 2019  RunTime: Feb10-2023 07:49:33  Nodes: 1  Procs: 1

 Temporary files are created in /scratch/kid_0.1813433518

 Molybdenum (TZP, 3d frozen)



 ===========================
 A T T A C H E D   F I L E S
 ===========================
  
 CREATE - Data File:    TZP-Mo.3d
                        Molybdenum (TZP, 3d frozen)
 Core Potentials:
         file : t12.rel



 ===============================
 M O D E L   P A R A M E T E R S
 ===============================
  
 DENSITY FUNCTIONAL POTENTIAL (scf)
    LDA:                               PW92                                    == Not Default ==
    Gradient Corrections:              PBEc PBEx                               == Not Default ==

 SPIN  (restricted / unrestr.)
    Molecule:                          Restricted                               

 OTHER ASPECTS
    Relativistic Corrections:          scalar (ZORA,MAPA)                      == Not Default ==

    Nuclear Charge Density Model:      Point Charge Nuclei                      
    Core Treatment:                    Frozen Orbital(s)                        

    Hyperfine or Zeeman Interaction:   ---                                      



 =====================================
 S Y M M E T R Y ,   E L E C T R O N S
 =====================================
  
 Symmetry: ATOM

 Irreducible Representations, including subspecies
 -------------------------------------------------
 S
 P:x  P:y  P:z
 D:z2  D:x2-y2  D:xy  D:xz  D:yz
 F:z3  F:z  F:xyz  F:z2x  F:z2y  F:x  F:y


 Configuration of Valence Electrons
 ==================================

          Occupation Numbers
          -------------------------------------------------
 S        2 1
 P        6
 D        5
 F        0
          -------------------------------------------------

 Total:   14

 Net Charge: 0 (Nuclei minus Electrons)

 Preset values for MO occupations will be applied through SCF cycle no. 1000000
 Thereafter, the program will assign electrons to MOs that are spatially
 similar to the occupied MOs in a "reference" cycle ("KeepOrbitals").
 The reference cycle is always the PREVIOUS cycle: it will evolve with
 the SCF procedure.



 ================================
 (Slater-type)  F U N C T I O N S  ***  (Basis and Fit)  ***
 ================================
  

 Atom Type    1  (Mo)
 ==============

 Valence Basis Sets:  18
 -----------------------
   1 S   30.500000
   2 S   17.750000
   3 S    8.350000
   2 P   18.600000
   3 P    8.700000
   3 D   10.050000
   4 S    5.100000
   4 S    3.300000
   5 S    2.150000
   5 S    1.350000
   5 S    0.870000
   4 P    4.950000
   4 P    3.300000
   4 P    2.300000
   4 D    3.500000
   4 D    1.850000
   4 D    0.970000
   5 P    1.350000

 Frozen Core Shells
 ------------------
    S:  3
    P:  2
    D:  1


 BAS: List of all Elementary Cartesian Basis Functions
 =====================================================

 The numbering in the list below (to the right of the function characteristics) is referred
 to in print-outs of MO eigenvectors and Mulliken populations in the BAS representation
 (as contrasted to the SFO representation).

 Notes:
 1. The functions are characterized by a polynomial prefactor (powers of x,y,z and r) and
    an exponential decay factor alpha.
 2. Since the basis sets are specific for an atom TYPE, the individual functions occur on
    all atoms of that type.
 3. The word 'Core' in the left margin signals that it is a Core Function (CF) : not a
    degree of freedom in the valence set, but only used to ensure orthogonalization of
    the other valence basis functions on the frozen Core Orbitals.


 (power of) X  Y  Z  R     Alpha  on Atom
            ==========     =====     ==========

 Mo                                   1
                                  ---------------------------------------------------------------------------
    Core    0  0  0  0    30.500      1
    Core    0  0  0  1    17.750      2
    Core    0  0  0  2     8.350      3
    Core    1  0  0  0    18.600      4
    Core    0  1  0  0    18.600      5
    Core    0  0  1  0    18.600      6
    Core    1  0  0  1     8.700      7
    Core    0  1  0  1     8.700      8
    Core    0  0  1  1     8.700      9
    Core    2  0  0  0    10.050     10
    Core    1  1  0  0    10.050     11
    Core    1  0  1  0    10.050     12
    Core    0  2  0  0    10.050     13
    Core    0  1  1  0    10.050     14
    Core    0  0  2  0    10.050     15
            0  0  0  3     5.100     16
            0  0  0  3     3.300     17
            0  0  0  4     2.150     18
            0  0  0  4     1.350     19
            0  0  0  4     0.870     20
            1  0  0  2     4.950     21
            0  1  0  2     4.950     22
            0  0  1  2     4.950     23
            1  0  0  2     3.300     24
            0  1  0  2     3.300     25
            0  0  1  2     3.300     26
            1  0  0  2     2.300     27
            0  1  0  2     2.300     28
            0  0  1  2     2.300     29
            2  0  0  1     3.500     30
            1  1  0  1     3.500     31
            1  0  1  1     3.500     32
            0  2  0  1     3.500     33
            0  1  1  1     3.500     34
            0  0  2  1     3.500     35
            2  0  0  1     1.850     36
            1  1  0  1     1.850     37
            1  0  1  1     1.850     38
            0  2  0  1     1.850     39
            0  1  1  1     1.850     40
            0  0  2  1     1.850     41
            2  0  0  1     0.970     42
            1  1  0  1     0.970     43
            1  0  1  1     0.970     44
            0  2  0  1     0.970     45
            0  1  1  1     0.970     46
            0  0  2  1     0.970     47
            1  0  0  3     1.350     48
            0  1  0  3     1.350     49
            0  0  1  3     1.350     50

 Total number of charge fitting functions (nprimf)       230
 Total number of Cartesian basis functions (naos)         50
 Total number of Cartesian core functions  (ncos)         15



 BAS: List of all Elementary Cartesian Basis Functions
 =====================================================

 The numbering in the list below (to the right of the function characteristics) is referred
 to in print-outs of MO eigenvectors and Mulliken populations in the BAS representation
 (as contrasted to the SFO representation).

 Notes:
 1. The functions are characterized by a polynomial prefactor (powers of x,y,z and r) and
    an exponential decay factor alpha.
 2. Since the basis sets are specific for an atom TYPE, the individual functions occur on
    all atoms of that type.
 3. The word 'Core' in the left margin signals that it is a Core Function (CF) : not a
    degree of freedom in the valence set, but only used to ensure orthogonalization of
    the other valence basis functions on the frozen Core Orbitals.


 (power of) X  Y  Z  R     Alpha  on Atom
            ==========     =====     ==========

 Mo                                   1
                                  ---------------------------------------------------------------------------
    Core    0  0  0  0    30.500      1
    Core    0  0  0  1    17.750      2
    Core    0  0  0  2     8.350      3
    Core    1  0  0  0    18.600      4
    Core    0  1  0  0    18.600      5
    Core    0  0  1  0    18.600      6
    Core    1  0  0  1     8.700      7
    Core    0  1  0  1     8.700      8
    Core    0  0  1  1     8.700      9
    Core    2  0  0  0    10.050     10
    Core    1  1  0  0    10.050     11
    Core    1  0  1  0    10.050     12
    Core    0  2  0  0    10.050     13
    Core    0  1  1  0    10.050     14
    Core    0  0  2  0    10.050     15
            0  0  0  3     5.100     16
            0  0  0  3     3.300     17
            0  0  0  4     2.150     18
            0  0  0  4     1.350     19
            0  0  0  4     0.870     20
            1  0  0  2     4.950     21
            0  1  0  2     4.950     22
            0  0  1  2     4.950     23
            1  0  0  2     3.300     24
            0  1  0  2     3.300     25
            0  0  1  2     3.300     26
            1  0  0  2     2.300     27
            0  1  0  2     2.300     28
            0  0  1  2     2.300     29
            2  0  0  1     3.500     30
            1  1  0  1     3.500     31
            1  0  1  1     3.500     32
            0  2  0  1     3.500     33
[...]
    1.O        -1.857749    0.153171   -1.388212
    2.O         1.072905    1.519052   -1.556876
    3.Mo       -0.789458    1.737665   -1.141200
    4.Mo       -1.058562   -1.595373   -1.112126
    5.O         0.835884   -1.729985   -1.476050
    6.Mo        1.957890   -0.177044   -1.236746
    7.O        -1.569957   -2.430118    0.306734
    8.O         3.018142   -0.283397   -2.596544
    9.O         3.001606   -0.211293    0.134653
   10.O        -1.351113    2.762526   -2.410896
   11.O        -1.081178    2.634521    0.320716
   12.O        -1.737028   -2.498728   -2.420406
   13.O         0.087333   -0.014896    0.343708
   14.P        -0.018287    0.123441    1.920176
   15.O         1.083260   -0.911320    2.490987
   16.O        -1.380306   -0.048565    2.509088
   17.O         0.686205    1.543100    2.268774
   18.H         0.168737    2.250178    1.810907
   19.H         0.743446   -1.315644    3.316060
 <Feb10-2023> <07:57:56>  >>>> CORORT
 <Feb10-2023> <07:57:56>  >>>> CLSMAT
 <Feb10-2023> <07:57:56>  >>>> ORTHON
 <Feb10-2023> <07:57:56>  >>>> GENPT
 <Feb10-2023> <07:57:56>  Block Length= 128
 <Feb10-2023> <07:57:56>  >>>> PTBAS
 <Feb10-2023> <07:57:57>  combining surface points...
 <Feb10-2023> <07:57:57>  combining surface points...
 <Feb10-2023> <07:57:57>  combining surface points...
 <Feb10-2023> <07:57:57>  >>>> CYCLE
 <Feb10-2023> <07:57:59>              |Error|         MaxErr       Wt(A-DIIS)
 <Feb10-2023> <07:57:59>      1      0.14980976      0.04038951
 <Feb10-2023> <07:58:00>      2      0.41050967      0.05957943    100.0
 <Feb10-2023> <07:58:02>      3      0.11008362      0.01436120    100.0
 <Feb10-2023> <07:58:03>      4      0.27933423      0.03542029    100.0
 <Feb10-2023> <07:58:04>      5      0.16339516      0.02010920    100.0
 <Feb10-2023> <07:58:06>      6      0.13932868      0.03800686    100.0
 <Feb10-2023> <07:58:07>      7      0.08810979      0.01123356     10.3
 <Feb10-2023> <07:58:08>      8      0.02552285      0.00391331      2.9
 <Feb10-2023> <07:58:10>      9      0.01039952      0.00136595      0.4
 <Feb10-2023> <07:58:11>     10      0.00416280      0.00051190      0.0
 <Feb10-2023> <07:58:12>     11      0.00136857      0.00019481      0.0
 <Feb10-2023> <07:58:13>     12      0.00093354      0.00016421      0.0
 <Feb10-2023> <07:58:15>     13      0.00057632      0.00008490      0.0
 <Feb10-2023> <07:58:16>     14      0.00011744      0.00001850      0.0
 <Feb10-2023> <07:58:17>     15      0.00010698      0.00001751      0.0
 <Feb10-2023> <07:58:18>     16      0.00006684      0.00001173      0.0
 <Feb10-2023> <07:58:20>     17      0.00001795      0.00000267      0.0
 <Feb10-2023> <07:58:21>     18      0.00001728      0.00000199      0.0
 <Feb10-2023> <07:58:22>     19      0.00001387      0.00000219      0.0
 <Feb10-2023> <07:58:23>     20      0.00000140      0.00000024      0.0
 <Feb10-2023> <07:58:24>  SCF converged
 <Feb10-2023> <07:58:24>     21      0.00000208      0.00000036      0.0
 <Feb10-2023> <07:58:25>  >>>> TOTEN
 <Feb10-2023> <07:58:26>  >>>> POPAN
 <Feb10-2023> <07:58:26>  >>>> DEBYE
 <Feb10-2023> <07:58:26>  >>>> ENGRAD
 <Feb10-2023> <07:58:31>  current energy                               -5.33516737 Hartree
 <Feb10-2023> <07:58:31>  energy change                      -0.00007985     0.00100000    T
 <Feb10-2023> <07:58:31>  constrained gradient max            0.00172187     0.00100000    F
 <Feb10-2023> <07:58:31>  constrained gradient rms            0.00053190     0.00066667    T
 <Feb10-2023> <07:58:31>  gradient max                        0.00172187
 <Feb10-2023> <07:58:31>  gradient rms                        0.00053190
 <Feb10-2023> <07:58:31>  cart. step max                      0.01075274     0.01000000    F
 <Feb10-2023> <07:58:31>  cart. step rms                      0.00255571     0.00666667    T
  Coordinates in Geometry Cycle 16
    Atom         X           Y           Z   (Angstrom)
    1.O        -1.857590    0.152462   -1.388197
    2.O         1.071607    1.519011   -1.558283
    3.Mo       -0.789995    1.736927   -1.142371
    4.Mo       -1.057466   -1.596388   -1.111815
    5.O         0.836901   -1.729778   -1.475686
    6.Mo        1.958652   -0.176599   -1.238394
    7.O        -1.566646   -2.432833    0.306812
    8.O         3.018207   -0.282627   -2.598649
    9.O         3.003231   -0.209728    0.132301
   10.O        -1.354073    2.764099   -2.409181
   11.O        -1.079890    2.632075    0.320896
   12.O        -1.736151   -2.499304   -2.420096
   13.O         0.088295   -0.014922    0.343919
   14.P        -0.016994    0.125480    1.920551
   15.O         1.080642   -0.910459    2.496118
   16.O        -1.379320   -0.041266    2.512011
   17.O         0.690183    1.543979    2.267696
   18.H         0.169485    2.250474    1.811323
   19.H         0.732693   -1.323315    3.313795
 <Feb10-2023> <07:58:31>  >>>> CORORT
 <Feb10-2023> <07:58:31>  >>>> CLSMAT
 <Feb10-2023> <07:58:31>  >>>> ORTHON
 <Feb10-2023> <07:58:31>  >>>> GENPT
 <Feb10-2023> <07:58:31>  Block Length= 128
 <Feb10-2023> <07:58:31>  >>>> PTBAS
 <Feb10-2023> <07:58:32>  combining surface points...
 <Feb10-2023> <07:58:32>  combining surface points...
 <Feb10-2023> <07:58:32>  combining surface points...
 <Feb10-2023> <07:58:32>  >>>> CYCLE
 <Feb10-2023> <07:58:34>              |Error|         MaxErr       Wt(A-DIIS)
 <Feb10-2023> <07:58:34>      1      0.09431912      0.01247489
 <Feb10-2023> <07:58:35>      2      0.41579975      0.06140428    100.0
 <Feb10-2023> <07:58:37>      3      0.10392397      0.01457468    100.0
 <Feb10-2023> <07:58:38>      4      0.09661485      0.01348718     12.6
 <Feb10-2023> <07:58:39>      5      0.15942131      0.02049492    100.0
 <Feb10-2023> <07:58:41>      6      0.09939501      0.01493332     14.1
 <Feb10-2023> <07:58:42>      7      0.02219772      0.00282317      1.8
 <Feb10-2023> <07:58:43>      8      0.01185168      0.00191747      0.9
 <Feb10-2023> <07:58:45>      9      0.00621327      0.00066997      0.0
 <Feb10-2023> <07:58:46>     10      0.00250173      0.00042490      0.0
 <Feb10-2023> <07:58:47>     11      0.00135072      0.00018495      0.0
 <Feb10-2023> <07:58:48>     12      0.00036213      0.00004547      0.0
 <Feb10-2023> <07:58:50>     13      0.00033743      0.00004135      0.0
 <Feb10-2023> <07:58:51>     14      0.00026006      0.00003747      0.0
 <Feb10-2023> <07:58:52>     15      0.00003021      0.00000532      0.0
 <Feb10-2023> <07:58:53>     16      0.00002045      0.00000350      0.0
 <Feb10-2023> <07:58:55>     17      0.00002173      0.00000315      0.0
 <Feb10-2023> <07:58:56>     18      0.00000902      0.00000130      0.0
 <Feb10-2023> <07:58:57>     19      0.00000358      0.00000061      0.0
 <Feb10-2023> <07:58:57>  SCF converged
 <Feb10-2023> <07:58:58>     20      0.00000435      0.00000061      0.0
 <Feb10-2023> <07:58:59>  >>>> TOTEN
 <Feb10-2023> <07:59:00>  >>>> POPAN
 <Feb10-2023> <07:59:00>  >>>> DEBYE
 <Feb10-2023> <07:59:00>  >>>> ENGRAD
 <Feb10-2023> <07:59:05>  current energy                               -5.33518977 Hartree
 <Feb10-2023> <07:59:05>  energy change                      -0.00002239     0.00100000    T
 <Feb10-2023> <07:59:05>  constrained gradient max            0.00162926     0.00100000    F
 <Feb10-2023> <07:59:05>  constrained gradient rms            0.00046017     0.00066667    T
 <Feb10-2023> <07:59:05>  gradient max                        0.00162926
 <Feb10-2023> <07:59:05>  gradient rms                        0.00046017
 <Feb10-2023> <07:59:05>  cart. step max                      0.00383249     0.01000000    T
 <Feb10-2023> <07:59:05>  cart. step rms                      0.00129308     0.00666667    T
  Coordinates in Geometry Cycle 17
    Atom         X           Y           Z   (Angstrom)
    1.O        -1.857339    0.152922   -1.388775
    2.O         1.071615    1.518918   -1.557873
    3.Mo       -0.789428    1.736439   -1.142351
    4.Mo       -1.057323   -1.596683   -1.111694
    5.O         0.836939   -1.730138   -1.474838
    6.Mo        1.958897   -0.177245   -1.238548
    7.O        -1.565480   -2.435129    0.306187
    8.O         3.017790   -0.282905   -2.599368
    9.O         3.004205   -0.210536    0.131607
   10.O        -1.354761    2.767121   -2.405985
   11.O        -1.077385    2.629100    0.323051
   12.O        -1.736123   -2.498403   -2.420749
   13.O         0.088160   -0.015450    0.344377
   14.P        -0.017341    0.126004    1.920829
   15.O         1.080352   -0.908991    2.497699
   16.O        -1.379583   -0.039579    2.512145
   17.O         0.689623    1.545384    2.265002
   18.H         0.166701    2.249846    1.807491
   19.H         0.732256   -1.323386    3.314540
 <Feb10-2023> <07:59:05>  >>>> CORORT
 <Feb10-2023> <07:59:05>  >>>> CLSMAT
 <Feb10-2023> <07:59:05>  >>>> ORTHON
 <Feb10-2023> <07:59:05>  >>>> GENPT
 <Feb10-2023> <07:59:05>  Block Length= 128
 <Feb10-2023> <07:59:05>  >>>> PTBAS
 <Feb10-2023> <07:59:06>  combining surface points...
 <Feb10-2023> <07:59:06>  combining surface points...
 <Feb10-2023> <07:59:06>  combining surface points...
 <Feb10-2023> <07:59:06>  >>>> CYCLE
 <Feb10-2023> <07:59:08>              |Error|         MaxErr       Wt(A-DIIS)
 <Feb10-2023> <07:59:08>      1      0.09384189      0.01268142
 <Feb10-2023> <07:59:09>      2      0.41690205      0.06153616    100.0
 <Feb10-2023> <07:59:11>      3      0.11819832      0.01498304    100.0
 <Feb10-2023> <07:59:12>      4      0.07758886      0.00907696      8.2
 <Feb10-2023> <07:59:13>      5      0.13177832      0.01686115    100.0
 <Feb10-2023> <07:59:15>      6      0.13841076      0.02244016    100.0
 <Feb10-2023> <07:59:16>      7      0.12927864      0.02093222    100.0
 <Feb10-2023> <07:59:17>      8      0.01739185      0.00336263      2.4
 <Feb10-2023> <07:59:19>      9      0.00721806      0.00110360      0.1
 <Feb10-2023> <07:59:20>     10      0.00307184      0.00055146      0.0
 <Feb10-2023> <07:59:21>     11      0.00135589      0.00021080      0.0
 <Feb10-2023> <07:59:22>     12      0.00038334      0.00005564      0.0
 <Feb10-2023> <07:59:24>     13      0.00019752      0.00003432      0.0
 <Feb10-2023> <07:59:25>     14      0.00035224      0.00006912      0.0
 <Feb10-2023> <07:59:26>     15      0.00007787      0.00001265      0.0
 <Feb10-2023> <07:59:27>     16      0.00001458      0.00000210      0.0
 <Feb10-2023> <07:59:29>     17      0.00002102      0.00000351      0.0
 <Feb10-2023> <07:59:30>     18      0.00000517      0.00000075      0.0
 <Feb10-2023> <07:59:30>  SCF converged
 <Feb10-2023> <07:59:31>     19      0.00000473      0.00000102      0.0
 <Feb10-2023> <07:59:31>  >>>> TOTEN
 <Feb10-2023> <07:59:33>  >>>> POPAN
 <Feb10-2023> <07:59:33>  >>>> DEBYE
 <Feb10-2023> <07:59:33>  >>>> ENGRAD
 <Feb10-2023> <07:59:37>  current energy                               -5.33519345 Hartree
 <Feb10-2023> <07:59:37>  energy change                      -0.00000368     0.00100000    T
 <Feb10-2023> <07:59:37>  constrained gradient max            0.00109302     0.00100000    F
 <Feb10-2023> <07:59:37>  constrained gradient rms            0.00029577     0.00066667    T
 <Feb10-2023> <07:59:37>  gradient max                        0.00109302
 <Feb10-2023> <07:59:37>  gradient rms                        0.00029577
 <Feb10-2023> <07:59:37>  cart. step max                      0.00481390     0.01000000    T
 <Feb10-2023> <07:59:37>  cart. step rms                      0.00141192     0.00666667    T
  Coordinates in Geometry Cycle 18
    Atom         X           Y           Z   (Angstrom)
    1.O        -1.856911    0.153912   -1.389645
    2.O         1.071913    1.518683   -1.558160
    3.Mo       -0.788669    1.736601   -1.143310
    4.Mo       -1.057498   -1.596353   -1.110569
    5.O         0.836609   -1.730388   -1.473278
    6.Mo        1.959054   -0.177903   -1.238272
    7.O        -1.565223   -2.435760    0.306674
    8.O         3.017226   -0.283848   -2.599538
    9.O         3.004881   -0.211020    0.131279
   10.O        -1.354685    2.769587   -2.404746
   11.O        -1.075129    2.628304    0.323417
   12.O        -1.736427   -2.497343   -2.420012
   13.O         0.087712   -0.015195    0.345284
   14.P        -0.017662    0.126360    1.921767
   15.O         1.082401   -0.906146    2.498891
   16.O        -1.379324   -0.043182    2.512124
   17.O         0.686074    1.547504    2.265918
   18.H         0.164535    2.249489    1.802677
   19.H         0.732894   -1.326010    3.312244
 <Feb10-2023> <07:59:37>  >>>> CORORT
 <Feb10-2023> <07:59:37>  >>>> CLSMAT
 <Feb10-2023> <07:59:37>  >>>> ORTHON
 <Feb10-2023> <07:59:38>  >>>> GENPT
 <Feb10-2023> <07:59:38>  Block Length= 128
 <Feb10-2023> <07:59:38>  >>>> PTBAS
 <Feb10-2023> <07:59:38>  combining surface points...
 <Feb10-2023> <07:59:38>  combining surface points...
 <Feb10-2023> <07:59:38>  combining surface points...
 <Feb10-2023> <07:59:38>  >>>> CYCLE
 <Feb10-2023> <07:59:41>              |Error|         MaxErr       Wt(A-DIIS)
 <Feb10-2023> <07:59:41>      1      0.09415077      0.01280385
 <Feb10-2023> <07:59:42>      2      0.41746840      0.06148804    100.0
 <Feb10-2023> <07:59:43>      3      0.11751907      0.01491967    100.0
 <Feb10-2023> <07:59:45>      4      0.07752976      0.00903706      8.1
 <Feb10-2023> <07:59:46>      5      0.13204078      0.01690816    100.0
 <Feb10-2023> <07:59:47>      6      0.13593582      0.02220035    100.0
 <Feb10-2023> <07:59:49>      7      0.12738464      0.02056528    100.0
 <Feb10-2023> <07:59:50>      8      0.01759319      0.00334913      2.4
 <Feb10-2023> <07:59:51>      9      0.00727737      0.00109084      0.1
 <Feb10-2023> <07:59:53>     10      0.00309466      0.00055483      0.0
 <Feb10-2023> <07:59:54>     11      0.00134645      0.00021177      0.0
 <Feb10-2023> <07:59:55>     12      0.00038271      0.00005499      0.0
 <Feb10-2023> <07:59:56>     13      0.00020290      0.00003486      0.0
 <Feb10-2023> <07:59:58>     14      0.00035647      0.00006885      0.0
 <Feb10-2023> <07:59:59>     15      0.00008143      0.00001275      0.0
 <Feb10-2023> <08:00:00>     16      0.00001255      0.00000173      0.0
 <Feb10-2023> <08:00:01>     17      0.00002410      0.00000406      0.0
 <Feb10-2023> <08:00:02>     18      0.00000474      0.00000069      0.0
 <Feb10-2023> <08:00:03>  SCF converged
 <Feb10-2023> <08:00:04>     19      0.00000411      0.00000082      0.0
 <Feb10-2023> <08:00:04>  >>>> TOTEN
 <Feb10-2023> <08:00:06>  >>>> POPAN
 <Feb10-2023> <08:00:06>  >>>> DEBYE
 <Feb10-2023> <08:00:06>  >>>> ENGRAD
 <Feb10-2023> <08:00:10>  current energy                               -5.33519232 Hartree
 <Feb10-2023> <08:00:10>  energy change                       0.00000112     0.00100000    T
 <Feb10-2023> <08:00:10>  constrained gradient max            0.00050079     0.00100000    T
 <Feb10-2023> <08:00:10>  constrained gradient rms            0.00015481     0.00066667    T
 <Feb10-2023> <08:00:10>  gradient max                        0.00050079
 <Feb10-2023> <08:00:10>  gradient rms                        0.00015481
 <Feb10-2023> <08:00:10>  cart. step max                      0.00114911     0.01000000    T
 <Feb10-2023> <08:00:10>  cart. step rms                      0.00035542     0.00666667    T
 <Feb10-2023> <08:00:10>  GEOMETRY CONVERGED
 <Feb10-2023> <08:00:10>  Calculating Energy Terms for Final Geometry
  Coordinates in Geometry Cycle 18
    Atom         X           Y           Z   (Angstrom)
    1.O        -1.856911    0.153912   -1.389645
    2.O         1.071913    1.518683   -1.558160
    3.Mo       -0.788669    1.736601   -1.143310
    4.Mo       -1.057498   -1.596353   -1.110569
    5.O         0.836609   -1.730388   -1.473278
    6.Mo        1.959054   -0.177903   -1.238272
    7.O        -1.565223   -2.435760    0.306674
    8.O         3.017226   -0.283848   -2.599538
    9.O         3.004881   -0.211020    0.131279
   10.O        -1.354685    2.769587   -2.404746
   11.O        -1.075129    2.628304    0.323417
   12.O        -1.736427   -2.497343   -2.420012
   13.O         0.087712   -0.015195    0.345284
   14.P        -0.017662    0.126360    1.921767
   15.O         1.082401   -0.906146    2.498891
   16.O        -1.379324   -0.043182    2.512124
   17.O         0.686074    1.547504    2.265918
   18.H         0.164535    2.249489    1.802677
   19.H         0.732894   -1.326010    3.312244
 <Feb10-2023> <08:00:10>  >>>> CORORT
 <Feb10-2023> <08:00:10>  >>>> CLSMAT
 <Feb10-2023> <08:00:10>  >>>> ORTHON
 <Feb10-2023> <08:00:10>  >>>> GENPT
 <Feb10-2023> <08:00:10>  Block Length= 128
 <Feb10-2023> <08:00:10>  >>>> PTBAS
 <Feb10-2023> <08:00:11>  combining surface points...
 <Feb10-2023> <08:00:11>  combining surface points...
 <Feb10-2023> <08:00:11>  combining surface points...
 <Feb10-2023> <08:00:11>  >>>> CYCLE
 <Feb10-2023> <08:00:13>              |Error|         MaxErr       Wt(A-DIIS)
 <Feb10-2023> <08:00:13>      1      0.09366321      0.01918376
 <Feb10-2023> <08:00:15>      2      0.41770152      0.07619863    100.0
 <Feb10-2023> <08:00:16>      3      0.11057470      0.02168027    100.0
 <Feb10-2023> <08:00:17>      4      0.08088364      0.01151930     10.6
 <Feb10-2023> <08:00:19>      5      0.14224299      0.02255880    100.0
 <Feb10-2023> <08:00:20>      6      0.10776632      0.01700405    100.0
 <Feb10-2023> <08:00:21>      7      0.10847578      0.02174674    100.0
 <Feb10-2023> <08:00:23>      8      0.03138392      0.00483011      3.9
 <Feb10-2023> <08:00:24>      9      0.00806086      0.00147818      0.5
 <Feb10-2023> <08:00:25>     10      0.00307153      0.00055939      0.0
 <Feb10-2023> <08:00:26>     11      0.00136540      0.00019806      0.0
 <Feb10-2023> <08:00:28>     12      0.00038139      0.00005191      0.0
 <Feb10-2023> <08:00:29>     13      0.00024546      0.00003733      0.0
 <Feb10-2023> <08:00:30>     14      0.00021102      0.00004287      0.0
 <Feb10-2023> <08:00:31>     15      0.00009362      0.00002004      0.0
 <Feb10-2023> <08:00:33>     16      0.00001197      0.00000249      0.0
 <Feb10-2023> <08:00:34>     17      0.00001341      0.00000267      0.0
 <Feb10-2023> <08:00:35>     18      0.00000539      0.00000115      0.0
 <Feb10-2023> <08:00:36>     19      0.00000252      0.00000038      0.0
 <Feb10-2023> <08:00:36>  SCF converged
 <Feb10-2023> <08:00:37>     20      0.00000268      0.00000058      0.0
 <Feb10-2023> <08:00:38>  >>>> TOTEN
 <Feb10-2023> <08:00:41>  QTAIM: determining topology...
 <Feb10-2023> <08:00:43>  >>>> POPAN
 <Feb10-2023> <08:00:43>  >>>> DEBYE
 <Feb10-2023> <08:00:43>  >>>> AMETS
 <Feb10-2023> <08:00:43>  >>>> POPUL
 <Feb10-2023> <08:00:43>   Bond Energy          -5.33519232 a.u.
 <Feb10-2023> <08:00:43>   Bond Energy        -145.17796976 eV
 <Feb10-2023> <08:00:43>   Bond Energy       -3347.88       kcal/mol
 <Feb10-2023> <08:00:43>  >>>> ENHESS
 <Feb10-2023> <08:00:46>  === NUCLEUS:     1
 <Feb10-2023> <08:01:58>  === NUCLEUS:     2
 <Feb10-2023> <08:03:06>  === NUCLEUS:     3
 <Feb10-2023> <08:04:14>  === NUCLEUS:     4
 <Feb10-2023> <08:05:24>  === NUCLEUS:     5
 <Feb10-2023> <08:06:32>  === NUCLEUS:     6
 <Feb10-2023> <08:07:40>  === NUCLEUS:     7
 <Feb10-2023> <08:08:50>  === NUCLEUS:     8
 <Feb10-2023> <08:10:00>  === NUCLEUS:     9
 <Feb10-2023> <08:11:08>  === NUCLEUS:    10
 <Feb10-2023> <08:12:16>  === NUCLEUS:    11
 <Feb10-2023> <08:13:21>  === NUCLEUS:    12
 <Feb10-2023> <08:14:28>  === NUCLEUS:    13
 <Feb10-2023> <08:15:38>  === NUCLEUS:    14
 <Feb10-2023> <08:16:52>  === NUCLEUS:    15
 <Feb10-2023> <08:18:05>  === NUCLEUS:    16
 <Feb10-2023> <08:19:17>  === NUCLEUS:    17
 <Feb10-2023> <08:20:28>  === NUCLEUS:    18
 <Feb10-2023> <08:21:33>  === NUCLEUS:    19
 <Feb10-2023> <08:22:37>  >>>> CALC_HESS_PMAT
 <Feb10-2023> <08:22:47>  >>>> CALC_HESS_WMAT
 <Feb10-2023> <08:22:49>  NORMAL TERMINATION
 <Feb10-2023> <08:22:49>  END
