
 *******************************************************************************
 *                                                                             *
 *  -------------------------------------                                      *
 *   Amsterdam Density Functional  (ADF)         2019                          *
 *  -------------------------------------                                      *
 *                                               r74351 2019-04-25             *
 *                                                                             *
 *                                                                             *
 *                            =====================                            *
 *                            |                   |                            *
 *                            |     D I R A C     |                            *
 *                            |                   |                            *
 *                            =====================                            *
 *                                                                             *
 *                                                                             *
 *   Online information and documentation:  https://www.scm.com/support/       *
 *   E-mail:  support@scm.com   info@scm.com                                   *
 *                                                                             *
 *   Scientific publications using ADF results must be properly referenced     *
 *   See the User Manuals (or the web site) for recommended citations          *
 *   The terms and conditions of the End User License Agreement apply to       *
 *   the use of ADF, https://www.scm.com/license-terms/                        *
 *                                                                             *
 **********************  x86_64_linux_intel / intelmpi  ************************
 
 Licensed to: Dr. Carles Bo / Institute of Chemical Research of Catalonia ( (ICIQ) / Tarragona / Spain 2022-11-28 14:37:29
 SCM User ID: u7609
  
 DIRAC 2019  RunTime: Mar08-2023 00:38:02  Nodes: 1  Procs: 1

 Temporary files are created in /scratch/kid_0.1059978229

1
 HYDROGEN ATOM RELATIVISTIC, Point Nuc, A and c from libtc   
 N J RN H ZN XION ANUC CLIGHT
 5000    1100.00000000197.36710137  1.00000000  0.00000000    1.007825  0.1370360E+03
  PH   PHI     EPS        DEL        DELRVR
  0.30  0.30     2500.00  0.00001000  0.00001000
 IDIRC  NC1  NDEBU NPRIN  IPUN IRCOR IWCOR
   1   300     0     0     0     0     0
   XALPHA      XLATTER      RNUC
  0.70000000  0.00000000  0.00000000 Point Charge
   XN   XL   XJ      XE          XZ      XDELL
  1.0  0.0  0.5      -1.000       1.000     0.00000
 ICORP=  0  NPCL=  0  DEMP=0.00  PEPS=0.000000
 R(1)=  0.1000000E-08 D=  0.1005080E+01 RNUC=  0.0000000E+00
 converged at cycle   32  DENSITY AVERAGING    0.2400
  MAXIMUM ERROR IN R.V(R) IS   0.79874357E-05
 Q,EY,EV,EZ,ESUM,ETOT,RHO  0.100000E+01 -0.266614E+00 -0.619969E+00 -0.910779E+00 -0.203940E+00 -0.415998E+00  0.337036E-17


 DIRAC CALCULATION
1                    HYDROGEN ATOM RELATIVISTIC, Point Nuc, A and c from libtc


 EXCHANGE COEFFICIENT=  0.7000000           TAIL CORRECTION=  0.           NUCLEAR RADIUS=  0.000E+00
0                       ORBITAL    N    L    J     ELECTRONS     EIGENVALUE                DELTA OF EIGENV.

                          1S1/2  1.0  0.0  0.5     1.000       -0.2039397E+00                 0.2720093E-06


                                        NUCLEAR CHARGE=    1.000000
                            INTEGRAL OF CHARGE DENSITY=    1.000000
                           SUM OF THE ORBITAL ENERGIES=     -0.2039
                                          TOTAL ENERGY=     -0.4160
                                        KINETIC ENERGY=      0.4160
                             NUCLEAR ATTRACTION ENERGY=     -0.9108
                             ELECTRON REPULSION ENERGY=      0.2787
                                       EXCHANGE ENERGY=     -0.2000

 *******************************************************************************

                             D I R A C   E X I T
 NORMAL TERMINATION



 =================
 Timing Statistics
 =================
  
 Total Used :                     CPU=        0.07      System=        0.00     Elapsed=        0.08

 Calls  Section                     ( Mean, Percentage )
 ---------------------------------------------------------------------------------------------------
     2  ><      ................      0.00    0.00             0.00    0.00             0.00    0.01
     1  EXIT PROCEDURE .........      0.07  100.00             0.00  100.00             0.08   99.99


 Currently Open Files (EXIT00)
 ====================

 Unit    Access Format  Status   Type       Ident (file)
 -------------------------------------------------------
   3      SEQ    FORM   TRANSP  NORMAL      LOGFILE
                                          ( logfile )
 
Create H   file=TZP-H
XC
  GGA PBE
End
relativistic ZORA
Corepotentials t12.rel
End

 *******************************************************************************
 *                                                                             *
 *  -------------------------------------                                      *
 *   Amsterdam Density Functional  (ADF)         2019                          *
 *  -------------------------------------                                      *
 *                                               r74351 2019-04-25             *
 *                                                                             *
 *                                                                             *
 *                              =================                              *
 *                              |               |                              *
 *                              |     A D F     |                              *
 *                              |               |                              *
 *                              =================                              *
 *                                                                             *
 *                                                                             *
 *   Online information and documentation:  https://www.scm.com/support/       *
 *   E-mail:  support@scm.com   info@scm.com                                   *
 *                                                                             *
 *   Scientific publications using ADF results must be properly referenced     *
 *   See the User Manuals (or the web site) for recommended citations          *
 *   The terms and conditions of the End User License Agreement apply to       *
 *   the use of ADF, https://www.scm.com/license-terms/                        *
 *                                                                             *
 **********************  x86_64_linux_intel / intelmpi  ************************
 
 Licensed to: Dr. Carles Bo / Institute of Chemical Research of Catalonia ( (ICIQ) / Tarragona / Spain 2022-11-28 14:37:29
 SCM User ID: u7609
  
 ADF 2019  RunTime: Mar08-2023 00:38:02  Nodes: 1  Procs: 1

 Temporary files are created in /scratch/kid_0.1481175564

 Hydrogen (TZP)



 ===========================
 A T T A C H E D   F I L E S
 ===========================
  
 CREATE - Data File:    TZP-H
                        Hydrogen (TZP)
 Core Potentials:
         file : t12.rel



 ===============================
 M O D E L   P A R A M E T E R S
 ===============================
  
 DENSITY FUNCTIONAL POTENTIAL (scf)
    LDA:                               PW92                                    == Not Default ==
    Gradient Corrections:              PBEc PBEx                               == Not Default ==

 SPIN  (restricted / unrestr.)
    Molecule:                          Restricted                               

 OTHER ASPECTS
    Relativistic Corrections:          scalar (ZORA,MAPA)                      == Not Default ==

    Nuclear Charge Density Model:      Point Charge Nuclei                      
    Core Treatment:                    Frozen Orbital(s)                        

    Hyperfine or Zeeman Interaction:   ---                                      



 =====================================
 S Y M M E T R Y ,   E L E C T R O N S
 =====================================
  
 Symmetry: ATOM

 Irreducible Representations, including subspecies
 -------------------------------------------------
 S
 P:x  P:y  P:z
 D:z2  D:x2-y2  D:xy  D:xz  D:yz
 F:z3  F:z  F:xyz  F:z2x  F:z2y  F:x  F:y


 Configuration of Valence Electrons
 ==================================

          Occupation Numbers
          -------------------------------------------------
 S        1
 P        0
 D        0
 F        0
          -------------------------------------------------

 Total:   1

 Net Charge: 0 (Nuclei minus Electrons)

 Preset values for MO occupations will be applied through SCF cycle no. 1000000
 Thereafter, the program will assign electrons to MOs that are spatially
 similar to the occupied MOs in a "reference" cycle ("KeepOrbitals").
 The reference cycle is always the PREVIOUS cycle: it will evolve with
 the SCF procedure.



 ================================
 (Slater-type)  F U N C T I O N S  ***  (Basis and Fit)  ***
 ================================
  

 Atom Type    1  (H)
 ==============

 Valence Basis Sets:   4
 -----------------------
   1 S    0.690000
   1 S    0.920000
   1 S    1.580000
   2 P    1.250000


 BAS: List of all Elementary Cartesian Basis Functions
 =====================================================

 The numbering in the list below (to the right of the function characteristics) is referred
 to in print-outs of MO eigenvectors and Mulliken populations in the BAS representation
 (as contrasted to the SFO representation).

 Notes:
 1. The functions are characterized by a polynomial prefactor (powers of x,y,z and r) and
    an exponential decay factor alpha.
 2. Since the basis sets are specific for an atom TYPE, the individual functions occur on
    all atoms of that type.
 3. The word 'Core' in the left margin signals that it is a Core Function (CF) : not a
    degree of freedom in the valence set, but only used to ensure orthogonalization of
    the other valence basis functions on the frozen Core Orbitals.


 (power of) X  Y  Z  R     Alpha  on Atom
            ==========     =====     ==========

 H                                    1
                                  ---------------------------------------------------------------------------
            0  0  0  0     0.690      1
            0  0  0  0     0.920      2
            0  0  0  0     1.580      3
            1  0  0  0     1.250      4
            0  1  0  0     1.250      5
            0  0  1  0     1.250      6

 Total number of charge fitting functions (nprimf)        50
 Total number of Cartesian basis functions (naos)          6
 Total number of Cartesian core functions  (ncos)          0



 BAS: List of all Elementary Cartesian Basis Functions
 =====================================================

 The numbering in the list below (to the right of the function characteristics) is referred
 to in print-outs of MO eigenvectors and Mulliken populations in the BAS representation
 (as contrasted to the SFO representation).

 Notes:
 1. The functions are characterized by a polynomial prefactor (powers of x,y,z and r) and
    an exponential decay factor alpha.
 2. Since the basis sets are specific for an atom TYPE, the individual functions occur on
    all atoms of that type.
 3. The word 'Core' in the left margin signals that it is a Core Function (CF) : not a
    degree of freedom in the valence set, but only used to ensure orthogonalization of
    the other valence basis functions on the frozen Core Orbitals.


 (power of) X  Y  Z  R     Alpha  on Atom
            ==========     =====     ==========

 H                                    1
                                  ---------------------------------------------------------------------------
            0  0  0  0     0.690      1
            0  0  0  0     0.920      2
            0  0  0  0     1.580      3
            1  0  0  0     1.250      4
            0  1  0  0     1.250      5
            0  0  1  0     1.250      6
1
 ***************************************************************************************************



                                              ***********************
                                              *  T E C H N I C A L  *
                                              ***********************
  



 =============================================================
 P A R A L L E L I Z A T I O N  and  V E C T O R I Z A T I O N
 =============================================================
  
 Nr of parallel processes:                                1
 Maximum vector length in NumInt loops:                 128



 =====================
 S C F   U P D A T E S
 =====================
  
 Max. nr. of cycles:                               300
 Convergence criterion:                              0.0000000100
   secondary criterion:                              0.0000000100

 Mix parameter (when DIIS does not apply):           0.2000000000
 Special mix parameter for the first cycle:          1.0000000000
 Mixed ADIIS+SDIIS will be used                  
    Max number of expansion vectors:                10
    Pure ADIIS when Max([F,P]) is above              0.1000000000
    Pure SDIIS when Max([F,P]) is below              0.0010000000
 Automatic ElectronSmearing (in case of problematic SCF convergence) disabled



 =================
 P R E C I S I O N  ***  (General: NumInt, NeglectFunctionTails, ...)  ***
 =================
  

 NumInt:           Target precision:                12.0000000000
 -------           Initial precision:               10.0000000000
                   Min. precision (optimization):   10.0000000000

 Neglect Functions:          Basis functions:        0.1000000000E-13
 ------------------          Fit functions:          0.1000000000E-13



 ===========================
 L I N E A R   S C A L I N G
 ===========================
  

 Cut-off radii density fit:                        0.1000000000E-97
 Overlap cut-off criterion AO matrix elements:     0.1000000000E-97
 Cut-offs for Coulomb potential and fitted density:0.1000000000E-97
 Cut-off criterion for Coulomb multipole terms:    0.1000000000E-97
 Progressive Convergence parameter:                 0.000000000    
1
 ***************************************************************************************************



                                            ***************************
                                            *  C O M P U T A T I O N  *
                                            ***************************
  

 Number of elements of the density matrix on this node (used, total):        21        21



 ===========================================
 Numerical Integration : Fuzzy Cells (Becke)
 ===========================================
  
 Becke grid quality: VERYGOOD       
  
 Lebedev angular grid order:             min:  13 max:  41
 Nr. of radial points:                   min:  64 max:  64

 Total nr. of points:         64
 Nr. of blocks:                1
 Block length:                64
 Nr. of dummy points:          0


 Test of Precision of the Numerical Integration Grid
 ===================================================

 Integral of the Total Core Density:                   0.00000000000000



 ========================
 Density Fitting (zlmFit)
 ========================
  
 ZlmFit Fit Quality: VERYGOOD       
  
 Max L-expansion:                        min:   0 max:   0
 Nr. of radial interpolation points:     min: 120 max: 120



 =====
 S C F  ***  ScaSCF  ***
 =====
  

 CYCLE    1
 SCF Error: norm([F,P])=      0.000000000000, max([F,P])=      0.000000000000
 orbitals (Q,E):
 ---------------
 S :1...3            ( 1.00    -0.5000)  ( 0.00    -0.0900)  ( 0.00     1.2936)
 P :1...1            ( 0.00     0.1562)

 CYCLE    2
 SCF Error: norm([F,P])=      0.031537872292, max([F,P])=      0.030110494752
 orbitals (Q,E):
 ---------------
 S :1...2            ( 1.00    -0.2218)  ( 0.00     0.1019)
 P :1...1            ( 0.00     0.4189)

 CYCLE    3
  SDIIS (wt  0.000):  0.1996  0.8004
 A-DIIS (wt  1.000):  0.0000  1.0000
  DIIS coefficients:  0.0000  1.0000
 SCF Error: norm([F,P])=      0.008617989401, max([F,P])=      0.008343029399
 orbitals (Q,E):
 ---------------
 S :1...2            ( 1.00    -0.2422)  ( 0.00     0.0889)
 P :1...1            ( 0.00     0.4024)

 CYCLE    4
  SDIIS (wt  0.993):  0.1666  0.8334
 A-DIIS (wt  0.007):  0.0000  1.0000
  DIIS coefficients:  0.1654  0.8346
 SCF Error: norm([F,P])=      0.001732350026, max([F,P])=      0.001718616814
 orbitals (Q,E):
 ---------------
 S :1...2            ( 1.00    -0.2385)  ( 0.00     0.0908)
 P :1...1            ( 0.00     0.4054)

 CYCLE    5
  SDIIS (wt  1.000):  0.0236  0.9764
  DIIS coefficients:  0.0236  0.9764
 SCF Error: norm([F,P])=      0.000043673449, max([F,P])=      0.000039769875
 orbitals (Q,E):
 ---------------
 S :1...2            ( 1.00    -0.2386)  ( 0.00     0.0908)
 P :1...1            ( 0.00     0.4054)

 CYCLE    6
  SDIIS (wt  1.000): -0.0577  1.0577
  DIIS coefficients: -0.0577  1.0577
 SCF Error: norm([F,P])=      0.000002383805, max([F,P])=      0.000002158128
 orbitals (Q,E):
 ---------------
 S :1...2            ( 1.00    -0.2386)  ( 0.00     0.0908)
 P :1...1            ( 0.00     0.4054)

 CYCLE    7
  SDIIS (wt  1.000): -0.0032  1.0032
  DIIS coefficients: -0.0032  1.0032
 SCF Error: norm([F,P])=      0.000000007721, max([F,P])=      0.000000007228
 orbitals (Q,E):
 ---------------
 S :1...2            ( 1.00    -0.2386)  ( 0.00     0.0908)
 P :1...1            ( 0.00     0.4054)

 SCF CONVERGED

 CYCLE    8
1
 ***************************************************************************************************



                                                *******************
                                                *  R E S U L T S  *
                                                *******************
  
 *** Using FIT density in Focky
  SDIIS (wt  1.000):  0.0192  0.9808
  DIIS coefficients:  0.0192  0.9808
 SCF Error: norm([F,P])=      0.000000000151, max([F,P])=      0.000000000141

 Scaled ZORA Orbital Energies, per Irrep and Spin:
 =================================================
                        Occup              E (au)              E (eV)       Diff (eV) with prev. cycle
                        -----      --------------------        ------       --------------------------
 S
               1        1.000     -0.23861775226993E+00        -6.493               7.43E-09
               2        0.000      0.90791701709251E-01         2.471
               3        0.000      0.15217530108908E+01        41.409
 P
               1        0.000      0.40537978060393E+00        11.031


 Partially Occupied:
               1 S                -0.23861775226993E+00
  
 LUMO :        2 S                 0.90791701709251E-01
  


 Orbital Energies, all Irreps
 ========================================

 Irrep        no.  (spin)   Occup              E (au)                E (eV)
 ---------------------------------------------------------------------------
 S             1             1.00       -0.23861775226993E+00        -6.4931
 S             2             0.00        0.90791701709251E-01         2.4706
 P             1             0.00        0.40537978060393E+00        11.0309
 S             3             0.00        0.15217530108908E+01        41.4090


 All Electron Calculation, thus no Orbital Energies of the Core Orbitals are calculated



 =======================================
 M U L L I K E N   P O P U L A T I O N S
 =======================================
  
 The survey below gives for each atom:
 a) the total charge (Z minus electrons)
 b) the net spin polarization (nr of electrons spin-A minus spin-B)
 c) for each spin the atomic electron valence density (integrated) per L-value.

 Atom              Charge    Spin density          S         P         D         F
 ----              ------    ------------       ------    ------    ------    ------
 1 H              -0.0000                       1.0000    0.0000    0.0000    0.0000

 Populations of individual BAS functions
 ----------------------------------------
 1 H            0.2104  0.6788  0.1107  0.0000  0.0000  0.0000

 Gross Charges per Atom (Z minus electrons)
 ==========================================
            -0.0000
 Net Total: -0.00000000



 =======================================================================
 Electrostatic potential at the Nuclei due to electrons and other nuclei
 =======================================================================
  
         Atom                  Potential
         ----                  ---------
     1)   H                   0.94468022
 
 
 ========================
 No memory problems found
 ========================
 
 Maximum number of active allocate calls:         306
 
 *******************************************************************************

                             A D F   E X I T
 NORMAL TERMINATION



 =================
 Timing Statistics
 =================
  
 Total Used :                     CPU=        0.36      System=        0.01     Elapsed=        0.41

 Calls  Section                     ( Mean, Percentage )
 ---------------------------------------------------------------------------------------------------
     3  ><      ................      0.00    1.11             0.00    0.00             0.00    1.03
     1  INIT    ................      0.07   20.00             0.00    0.00             0.09   21.80
     1  GEOMET  ................      0.02    4.44             0.00   33.33             0.03    6.08
     1  INPUTA  ................      0.00    1.11             0.00    0.00             0.00    0.85
     1  MAINSY  ................      0.01    2.22             0.00    0.00             0.01    3.28
     1  SYMFIT  ................      0.00    1.11             0.00    0.00             0.00    0.39
     1  CORORT  ................      0.00    0.00             0.00    0.00             0.00    0.33
     1  SYMORB  ................      0.00    0.00             0.00    0.00             0.00    0.18
     1  CLSMAT  ................      0.00    1.11             0.00   33.34             0.01    1.28
     1  ORTHON  ................      0.00    1.11             0.00    0.00             0.01    1.22
     1  GENPT   ................      0.02    4.44             0.00    0.00             0.01    3.14
     1  PTBAS   ................      0.00    1.11             0.00    0.00             0.00    1.15
     8  FOCKY   ................      0.02   45.56             0.00   33.33             0.02   44.33
     8  FOCKTR  ................      0.00    0.00             0.00    0.00             0.00    0.95
     8  SDIIS   ................      0.00    7.78             0.00    0.00             0.00    5.57
     1  COREPS  ................      0.01    3.33             0.00    0.00             0.02    3.63
     1  POPAN   ................      0.00    1.11             0.00    0.00             0.00    1.16
     1  DEBYE   ................      0.00    1.11             0.00    0.00             0.00    0.47
     1  EXIT PROCEDURE .........      0.01    3.33             0.00    0.00             0.01    3.18


 Currently Open Files (EXIT00)
 ====================

 Unit    Access Format  Status   Type       Ident (file)
 -------------------------------------------------------
   3      SEQ    FORM   TRANSP  NORMAL      LOGFILE
                                          ( logfile )

 ***************************************************************************************************
 (LOGFILE)
 <Mar08-2023> <00:38:02>  DIRAC 2019  RunTime: Mar08-2023 00:38:02  Nodes: 1  Procs: 1
 <Mar08-2023> <00:38:02>  NORMAL TERMINATION
 <Mar08-2023> <00:38:02>  END
 <Mar08-2023> <00:38:02>  ADF 2019  RunTime: Mar08-2023 00:38:02  Nodes: 1  Procs: 1
 <Mar08-2023> <00:38:02>  Hydrogen (TZP)
 <Mar08-2023> <00:38:02>  RunType   : CREATE
 <Mar08-2023> <00:38:02>  Net Charge: 0 (Nuclei minus Electrons)
 <Mar08-2023> <00:38:02>  Symmetry  : ATOM
  Coordinates
    Atom         X           Y           Z   (Angstrom)
    1.H         0.000000    0.000000    0.000000
 <Mar08-2023> <00:38:02>  >>>> CORORT
 <Mar08-2023> <00:38:02>  >>>> CLSMAT
 <Mar08-2023> <00:38:02>  >>>> ORTHON
 <Mar08-2023> <00:38:02>  >>>> GENPT
 <Mar08-2023> <00:38:02>  Block Length=  64
 <Mar08-2023> <00:38:02>  >>>> PTBAS
 <Mar08-2023> <00:38:02>  >>>> CYCLE
 <Mar08-2023> <00:38:02>              |Error|         MaxErr       Wt(A-DIIS)
 <Mar08-2023> <00:38:02>      1      0.00000000      0.00000000
 <Mar08-2023> <00:38:02>      2      0.03153787      0.03011049
 <Mar08-2023> <00:38:02>      3      0.00861799      0.00834303    100.0
 <Mar08-2023> <00:38:02>      4      0.00173235      0.00171862      0.7
 <Mar08-2023> <00:38:02>      5      0.00004367      0.00003977      0.0
 <Mar08-2023> <00:38:02>      6      0.00000238      0.00000216      0.0
 <Mar08-2023> <00:38:02>      7      0.00000001      0.00000001      0.0
 <Mar08-2023> <00:38:02>  SCF converged
 <Mar08-2023> <00:38:02>      8      0.00000000      0.00000000      0.0
 <Mar08-2023> <00:38:02>  >>>> POPAN
 <Mar08-2023> <00:38:02>  >>>> DEBYE
 <Mar08-2023> <00:38:02>  NORMAL TERMINATION
 <Mar08-2023> <00:38:02>  END

 *******************************************************************************
 *                                                                             *
 *  -------------------------------------                                      *
 *   Amsterdam Density Functional  (ADF)         2019                          *
 *  -------------------------------------                                      *
 *                                               r74351 2019-04-25             *
 *                                                                             *
 *                                                                             *
 *                            =====================                            *
 *                            |                   |                            *
 *                            |     D I R A C     |                            *
 *                            |                   |                            *
 *                            =====================                            *
 *                                                                             *
 *                                                                             *
 *   Online information and documentation:  https://www.scm.com/support/       *
 *   E-mail:  support@scm.com   info@scm.com                                   *
 *                                                                             *
 *   Scientific publications using ADF results must be properly referenced     *
 *   See the User Manuals (or the web site) for recommended citations          *
 *   The terms and conditions of the End User License Agreement apply to       *
 *   the use of ADF, https://www.scm.com/license-terms/                        *
 *                                                                             *
 **********************  x86_64_linux_intel / intelmpi  ************************
 
 Licensed to: Dr. Carles Bo / Institute of Chemical Research of Catalonia ( (ICIQ) / Tarragona / Spain 2022-11-28 14:37:29
 SCM User ID: u7609
  
 DIRAC 2019  RunTime: Mar08-2023 00:38:03  Nodes: 1  Procs: 1

 Temporary files are created in /scratch/kid_0.844023284

1
 PHOSPHORUS ATOM 1s CORE RELATIVISTIC, Point Nuc, A and c fro
 N J RN H ZN XION ANUC CLIGHT
 5000    7100.00000000197.36710137 15.00000000  0.00000000   30.973761  0.1370360E+03
  PH   PHI     EPS        DEL        DELRVR
  0.30  0.30     2500.00  0.00001000  0.00001000
 IDIRC  NC1  NDEBU NPRIN  IPUN IRCOR IWCOR
   1   300     0     0     0     0     1
   XALPHA      XLATTER      RNUC
  0.70000000  0.00000000  0.00000000 Point Charge
   XN   XL   XJ      XE          XZ      XDELL
  1.0  0.0  0.5    -600.000       2.000     0.00000
  2.0  0.0  0.5     -75.000       2.000     0.00000
  2.0  1.0  0.5     -70.000       2.000     0.00000
  2.0  1.0  1.5     -70.000       4.000     0.00000
  3.0  0.0  0.5     -25.000       2.000     0.00000
  3.0  1.0  0.5      -0.250       2.000     0.00000
  3.0  1.0  1.5      -0.250       1.000     0.00000
 ICORP=  0  NPCL=  0  DEMP=0.00  PEPS=0.000000
 R(1)=  0.1000000E-08 D=  0.1005080E+01 RNUC=  0.0000000E+00
 converged at cycle   47  DENSITY AVERAGING    0.3000
  MAXIMUM ERROR IN R.V(R) IS   0.93255186E-05
 Q,EY,EV,EZ,ESUM,ETOT,RHO  0.150000E+02 -0.290161E+02 -0.536820E+03 -0.814855E+03 -0.194417E+03 -0.340688E+03  0.340722E-13


 DIRAC CALCULATION
1                    PHOSPHORUS ATOM 1s CORE RELATIVISTIC, Point Nuc, A and c from libtc


 EXCHANGE COEFFICIENT=  0.7000000           TAIL CORRECTION=  0.           NUCLEAR RADIUS=  0.000E+00
0                       ORBITAL    N    L    J     ELECTRONS     EIGENVALUE                DELTA OF EIGENV.

                          1S1/2  1.0  0.0  0.5     2.000       -0.7640874E+02                 0.2597240E-06
                          2S1/2  2.0  0.0  0.5     2.000       -0.6353640E+01                 0.3482713E-07
                          2P1/2  2.0  1.0  0.5     2.000       -0.4588256E+01                 0.3010938E-07
                          2P3/2  2.0  1.0  1.5     4.000       -0.4554413E+01                 0.2993762E-07
                          3S1/2  3.0  0.0  0.5     2.000       -0.4844206E+00                 0.1693624E-07
                          3P1/2  3.0  1.0  0.5     2.000       -0.1770291E+00                 0.1234259E-07
                          3P3/2  3.0  1.0  1.5     1.000       -0.1750217E+00                 0.1224459E-07


                                        NUCLEAR CHARGE=   15.000000
                            INTEGRAL OF CHARGE DENSITY=   15.000000
                           SUM OF THE ORBITAL ENERGIES=   -194.4169
                                          TOTAL ENERGY=   -340.6884
                                        KINETIC ENERGY=    342.4034
                             NUCLEAR ATTRACTION ENERGY=   -814.8554
                             ELECTRON REPULSION ENERGY=    153.5256
                                       EXCHANGE ENERGY=    -21.7621

 *******************************************************************************

                             D I R A C   E X I T
 NORMAL TERMINATION



 =================
 Timing Statistics
 =================
  
 Total Used :                     CPU=        0.28      System=        0.00     Elapsed=        0.29

 Calls  Section                     ( Mean, Percentage )
 ---------------------------------------------------------------------------------------------------
     2  ><      ................      0.00    0.00             0.00    0.00             0.00    0.00
     1  EXIT PROCEDURE .........      0.28  100.00             0.00    0.00             0.29  100.00


 Currently Open Files (EXIT00)
 ====================

 Unit    Access Format  Status   Type       Ident (file)
 -------------------------------------------------------
   3      SEQ    FORM   TRANSP  NORMAL      LOGFILE
                                          ( logfile )
 
Create P   file=TZP-P.1s
XC
  GGA PBE
End
relativistic ZORA
Corepotentials t12.rel
End

 *******************************************************************************
 *                                                                             *
 *  -------------------------------------                                      *
 *   Amsterdam Density Functional  (ADF)         2019                          *
 *  -------------------------------------                                      *
 *                                               r74351 2019-04-25             *
 *                                                                             *
 *                                                                             *
 *                              =================                              *
 *                              |               |                              *
 *                              |     A D F     |                              *
 *                              |               |                              *
 *                              =================                              *
 *                                                                             *
 *                                                                             *
 *   Online information and documentation:  https://www.scm.com/support/       *
 *   E-mail:  support@scm.com   info@scm.com                                   *
 *                                                                             *
 *   Scientific publications using ADF results must be properly referenced     *
 *   See the User Manuals (or the web site) for recommended citations          *
 *   The terms and conditions of the End User License Agreement apply to       *
 *   the use of ADF, https://www.scm.com/license-terms/                        *
 *                                                                             *
 **********************  x86_64_linux_intel / intelmpi  ************************
 
 Licensed to: Dr. Carles Bo / Institute of Chemical Research of Catalonia ( (ICIQ) / Tarragona / Spain 2022-11-28 14:37:29
 SCM User ID: u7609
  
 ADF 2019  RunTime: Mar08-2023 00:38:03  Nodes: 1  Procs: 1

 Temporary files are created in /scratch/kid_0.2071806824

 Phosphorus (TZP, 1s frozen)



 ===========================
 A T T A C H E D   F I L E S
 ===========================
  
 CREATE - Data File:    TZP-P.1s
                        Phosphorus (TZP, 1s frozen)
 Core Potentials:
         file : t12.rel



 ===============================
 M O D E L   P A R A M E T E R S
 ===============================
  
 DENSITY FUNCTIONAL POTENTIAL (scf)
    LDA:                               PW92                                    == Not Default ==
    Gradient Corrections:              PBEc PBEx                               == Not Default ==

 SPIN  (restricted / unrestr.)
    Molecule:                          Restricted                               

 OTHER ASPECTS
    Relativistic Corrections:          scalar (ZORA,MAPA)                      == Not Default ==

    Nuclear Charge Density Model:      Point Charge Nuclei                      
    Core Treatment:                    Frozen Orbital(s)                        

    Hyperfine or Zeeman Interaction:   ---                                      



 =====================================
 S Y M M E T R Y ,   E L E C T R O N S
 =====================================
  
 Symmetry: ATOM

 Irreducible Representations, including subspecies
 -------------------------------------------------
 S
 P:x  P:y  P:z
 D:z2  D:x2-y2  D:xy  D:xz  D:yz
 F:z3  F:z  F:xyz  F:z2x  F:z2y  F:x  F:y


 Configuration of Valence Electrons
 ==================================

          Occupation Numbers
          -------------------------------------------------
 S        2*2
 P        6 3
 D        0
 F        0
          -------------------------------------------------

 Total:   13

 Net Charge: 0 (Nuclei minus Electrons)

 Preset values for MO occupations will be applied through SCF cycle no. 1000000
 Thereafter, the program will assign electrons to MOs that are spatially
 similar to the occupied MOs in a "reference" cycle ("KeepOrbitals").
 The reference cycle is always the PREVIOUS cycle: it will evolve with
 the SCF procedure.



 ================================
 (Slater-type)  F U N C T I O N S  ***  (Basis and Fit)  ***
 ================================
  

 Atom Type    1  (P)
 ==============

 Valence Basis Sets:  12
 -----------------------
   1 S   12.550000
   2 S    5.600000
   2 S    4.050000
   2 P    7.450000
   2 P    4.100000
   3 S    1.300000
   3 S    1.850000
   3 S    2.650000
   3 P    0.850000
   3 P    1.300000
   3 P    2.050000
   3 D    1.900000

 Frozen Core Shells
 ------------------
    S:  1


 BAS: List of all Elementary Cartesian Basis Functions
 =====================================================

 The numbering in the list below (to the right of the function characteristics) is referred
 to in print-outs of MO eigenvectors and Mulliken populations in the BAS representation
 (as contrasted to the SFO representation).

 Notes:
 1. The functions are characterized by a polynomial prefactor (powers of x,y,z and r) and
    an exponential decay factor alpha.
 2. Since the basis sets are specific for an atom TYPE, the individual functions occur on
    all atoms of that type.
 3. The word 'Core' in the left margin signals that it is a Core Function (CF) : not a
    degree of freedom in the valence set, but only used to ensure orthogonalization of
    the other valence basis functions on the frozen Core Orbitals.


 (power of) X  Y  Z  R     Alpha  on Atom
            ==========     =====     ==========

 P                                    1
                                  ---------------------------------------------------------------------------
    Core    0  0  0  0    12.550      1
            0  0  0  1     5.600      2
            0  0  0  1     4.050      3
            1  0  0  0     7.450      4
            0  1  0  0     7.450      5
            0  0  1  0     7.450      6
            1  0  0  0     4.100      7
            0  1  0  0     4.100      8
            0  0  1  0     4.100      9
            0  0  0  2     1.300     10
            0  0  0  2     1.850     11
            0  0  0  2     2.650     12
            1  0  0  1     0.850     13
            0  1  0  1     0.850     14
            0  0  1  1     0.850     15
            1  0  0  1     1.300     16
            0  1  0  1     1.300     17
            0  0  1  1     1.300     18
            1  0  0  1     2.050     19
            0  1  0  1     2.050     20
            0  0  1  1     2.050     21
            2  0  0  0     1.900     22
            1  1  0  0     1.900     23
            1  0  1  0     1.900     24
            0  2  0  0     1.900     25
            0  1  1  0     1.900     26
            0  0  2  0     1.900     27

 Total number of charge fitting functions (nprimf)       106
 Total number of Cartesian basis functions (naos)         27
 Total number of Cartesian core functions  (ncos)          1



 BAS: List of all Elementary Cartesian Basis Functions
 =====================================================

 The numbering in the list below (to the right of the function characteristics) is referred
 to in print-outs of MO eigenvectors and Mulliken populations in the BAS representation
 (as contrasted to the SFO representation).

 Notes:
 1. The functions are characterized by a polynomial prefactor (powers of x,y,z and r) and
    an exponential decay factor alpha.
 2. Since the basis sets are specific for an atom TYPE, the individual functions occur on
    all atoms of that type.
 3. The word 'Core' in the left margin signals that it is a Core Function (CF) : not a
    degree of freedom in the valence set, but only used to ensure orthogonalization of
    the other valence basis functions on the frozen Core Orbitals.


 (power of) X  Y  Z  R     Alpha  on Atom
            ==========     =====     ==========

 P                                    1
                                  ---------------------------------------------------------------------------
    Core    0  0  0  0    12.550      1
            0  0  0  1     5.600      2
            0  0  0  1     4.050      3
            1  0  0  0     7.450      4
            0  1  0  0     7.450      5
            0  0  1  0     7.450      6
            1  0  0  0     4.100      7
            0  1  0  0     4.100      8
            0  0  1  0     4.100      9
            0  0  0  2     1.300     10
            0  0  0  2     1.850     11
            0  0  0  2     2.650     12
            1  0  0  1     0.850     13
            0  1  0  1     0.850     14
            0  0  1  1     0.850     15
            1  0  0  1     1.300     16
            0  1  0  1     1.300     17
            0  0  1  1     1.300     18
            1  0  0  1     2.050     19
            0  1  0  1     2.050     20
            0  0  1  1     2.050     21
            2  0  0  0     1.900     22
            1  1  0  0     1.900     23
            1  0  1  0     1.900     24
            0  2  0  0     1.900     25
            0  1  1  0     1.900     26
            0  0  2  0     1.900     27
1
 ***************************************************************************************************



                                              ***********************
                                              *  T E C H N I C A L  *
                                              ***********************
  



 =============================================================
 P A R A L L E L I Z A T I O N  and  V E C T O R I Z A T I O N
 =============================================================
  
 Nr of parallel processes:                                1
 Maximum vector length in NumInt loops:                 128



 =====================
 S C F   U P D A T E S
 =====================
  
 Max. nr. of cycles:                               300
 Convergence criterion:                              0.0000000100
   secondary criterion:                              0.0000000100

 Mix parameter (when DIIS does not apply):           0.2000000000
 Special mix parameter for the first cycle:          1.0000000000
 Mixed ADIIS+SDIIS will be used                  
    Max number of expansion vectors:                10
    Pure ADIIS when Max([F,P]) is above              0.1000000000
    Pure SDIIS when Max([F,P]) is below              0.0010000000
 Automatic ElectronSmearing (in case of problematic SCF convergence) disabled



 =================
 P R E C I S I O N  ***  (General: NumInt, NeglectFunctionTails, ...)  ***
 =================
  

 NumInt:           Target precision:                12.0000000000
 -------           Initial precision:               10.0000000000
                   Min. precision (optimization):   10.0000000000

 Neglect Functions:          Basis functions:        0.1000000000E-13
 ------------------          Fit functions:          0.1000000000E-13



 ===========================
 L I N E A R   S C A L I N G
 ===========================
  

 Cut-off radii density fit:                        0.1000000000E-97
 Overlap cut-off criterion AO matrix elements:     0.1000000000E-97
 Cut-offs for Coulomb potential and fitted density:0.1000000000E-97
 Cut-off criterion for Coulomb multipole terms:    0.1000000000E-97
 Progressive Convergence parameter:                 0.000000000    
1
 ***************************************************************************************************



                                            ***************************
                                            *  C O M P U T A T I O N  *
                                            ***************************
  

 Number of elements of the density matrix on this node (used, total):       378       378



 ===========================================
 Numerical Integration : Fuzzy Cells (Becke)
 ===========================================
  
 Becke grid quality: VERYGOOD       
  
 Lebedev angular grid order:             min:  13 max:  41
 Nr. of radial points:                   min:  76 max:  76

 Total nr. of points:         76
 Nr. of blocks:                1
 Block length:                76
 Nr. of dummy points:          0


 Test of Precision of the Numerical Integration Grid
 ===================================================

 Integral of the Total Core Density:                   1.99999999908170
 Relative Error:                                      -4.592E-10



 ========================
 Density Fitting (zlmFit)
 ========================
  
 ZlmFit Fit Quality: VERYGOOD       
  
 Max L-expansion:                        min:   0 max:   0
 Nr. of radial interpolation points:     min: 190 max: 190



 =====
 S C F  ***  ScaSCF  ***
 =====
  

 CYCLE    1
 SCF Error: norm([F,P])=      0.000000000000, max([F,P])=      0.000000000000
 orbitals (Q,E):
 ---------------
 S :1...5            ( 2.00   -23.0992)  ( 2.00    -9.8031)  ( 0.00    -5.2886)  ( 0.00    -3.1440)
                     ( 0.00    -1.2993)
 P :1...5            ( 6.00   -22.3278)  ( 3.00    -9.2322)  ( 0.00    -4.8937)  ( 0.00    -3.0142)
                     ( 0.00    -1.9614)
 D :1...1            ( 0.00    -6.4318)

 CYCLE    2
  SDIIS (wt  0.000):  1.0000  0.0000
 A-DIIS (wt  1.000):  0.1145  0.8855
  DIIS coefficients:  0.1145  0.8855
 SCF Error: norm([F,P])=     18.574199763001, max([F,P])=      5.729460424591
 orbitals (Q,E):
 ---------------
 S :1...3            ( 2.00    -4.5689)  ( 2.00    -0.5693)  ( 0.00    -0.0589)
 P :1...3            ( 6.00    -2.5820)  ( 3.00    -0.3376)  ( 0.00    -0.0879)
 D :1...1            ( 0.00     0.3219)

 CYCLE    3
  SDIIS (wt  0.000):  0.2387  0.7613
 A-DIIS (wt  1.000):  0.0000  1.0000
  DIIS coefficients:  0.0000  1.0000
 SCF Error: norm([F,P])=      7.892246338364, max([F,P])=      2.592954182835
 orbitals (Q,E):
 ---------------
 S :1...3            ( 2.00    -8.2146)  ( 2.00    -0.9843)  ( 0.00    -0.0433)
 P :1...3            ( 6.00    -6.5635)  ( 3.00    -0.6019)  ( 0.00    -0.0049)
 D :1...1            ( 0.00    -0.0107)

 CYCLE    4
  SDIIS (wt  0.000): -0.0871  0.2952  0.7919
 A-DIIS (wt  1.000):  0.0000  0.1757  0.8243
  DIIS coefficients:  0.0000  0.1757  0.8243
 SCF Error: norm([F,P])=      4.387176641077, max([F,P])=      1.761626650861
 orbitals (Q,E):
 ---------------
 S :1...3            ( 2.00    -5.8126)  ( 2.00    -0.3504)  ( 0.00     0.1791)
 P :1...3            ( 6.00    -3.9508)  ( 3.00    -0.0835)  ( 0.00     0.1310)
 D :1...1            ( 0.00     0.5508)

 CYCLE    5
  SDIIS (wt  0.000): -0.0109 -0.0602  0.1941  0.8770
 A-DIIS (wt  1.000):  0.0000  0.0000  0.0000  1.0000
  DIIS coefficients:  0.0000  0.0000  0.0000  1.0000
 SCF Error: norm([F,P])=      1.324345584458, max([F,P])=      0.466956153840
 orbitals (Q,E):
 ---------------
 S :1...3            ( 2.00    -6.8907)  ( 2.00    -0.7073)  ( 0.00     0.0342)
 P :1...3            ( 6.00    -5.0922)  ( 3.00    -0.3650)  ( 0.00     0.0330)
 D :1...1            ( 0.00     0.1959)

 CYCLE    6
  SDIIS (wt  0.000):  0.0000 -0.0289 -0.0346  0.4584  0.6050
 A-DIIS (wt  1.000):  0.0000  0.0000  0.0000  0.3111  0.6889
  DIIS coefficients:  0.0000  0.0000  0.0000  0.3111  0.6889
 SCF Error: norm([F,P])=      0.894656609953, max([F,P])=      0.328552344502
 orbitals (Q,E):
 ---------------
 S :1...3            ( 2.00    -6.3109)  ( 2.00    -0.4896)  ( 0.00     0.1210)
 P :1...3            ( 6.00    -4.4823)  ( 3.00    -0.1842)  ( 0.00     0.0870)
 D :1...1            ( 0.00     0.4072)

 CYCLE    7
  SDIIS (wt  0.437):  0.0003 -0.0004 -0.0106 -0.0415  0.1385  0.9137
 A-DIIS (wt  0.563):  0.0000  0.0000  0.0000  0.0000  0.0000  1.0000
  DIIS coefficients:  0.0001 -0.0002 -0.0046 -0.0181  0.0605  0.9623
 SCF Error: norm([F,P])=      0.152753231532, max([F,P])=      0.056768903175
 orbitals (Q,E):
 ---------------
 S :1...3            ( 2.00    -6.4268)  ( 2.00    -0.5264)  ( 0.00     0.1084)
 P :1...3            ( 6.00    -4.6039)  ( 3.00    -0.2126)  ( 0.00     0.0772)
 D :1...1            ( 0.00     0.3702)

 CYCLE    8
  SDIIS (wt  0.777): -0.0000 -0.0007  0.0025  0.0136 -0.0400  0.1180  0.9067
 A-DIIS (wt  0.223):  0.0000  0.0000  0.0000  0.0000  0.0000  0.0410  0.9590
  DIIS coefficients: -0.0000 -0.0005  0.0019  0.0105 -0.0311  0.1008  0.9184
 SCF Error: norm([F,P])=      0.062117061218, max([F,P])=      0.023065151090
 orbitals (Q,E):
 ---------------
 S :1...3            ( 2.00    -6.3871)  ( 2.00    -0.5116)  ( 0.00     0.1144)
 P :1...3            ( 6.00    -4.5623)  ( 3.00    -0.2008)  ( 0.00     0.0809)
 D :1...1            ( 0.00     0.3849)

 CYCLE    9
  SDIIS (wt  0.976):  0.0000  0.0000 -0.0001 -0.0000 -0.0006  0.0067  0.1535  0.8406
 A-DIIS (wt  0.024):  0.0000  0.0000  0.0000  0.0000  0.0000  0.0000  0.0000  1.0000
  DIIS coefficients:  0.0000  0.0000 -0.0001 -0.0000 -0.0006  0.0065  0.1498  0.8445
 SCF Error: norm([F,P])=      0.008957667695, max([F,P])=      0.003406470825
 orbitals (Q,E):
 ---------------
 S :1...3            ( 2.00    -6.3923)  ( 2.00    -0.5136)  ( 0.00     0.1136)
 P :1...3            ( 6.00    -4.5677)  ( 3.00    -0.2024)  ( 0.00     0.0804)
 D :1...1            ( 0.00     0.3830)

 CYCLE   10
  SDIIS (wt  1.000): -0.0000  0.0000 -0.0000 -0.0000  0.0000  0.0002  0.0031  0.0372  0.9595
  DIIS coefficients: -0.0000  0.0000 -0.0000 -0.0000  0.0000  0.0002  0.0031  0.0372  0.9595
 SCF Error: norm([F,P])=      0.000163653333, max([F,P])=      0.000063717608
 orbitals (Q,E):
 ---------------
 S :1...3            ( 2.00    -6.3922)  ( 2.00    -0.5136)  ( 0.00     0.1136)
 P :1...3            ( 6.00    -4.5676)  ( 3.00    -0.2024)  ( 0.00     0.0804)
 D :1...1            ( 0.00     0.3830)

 CYCLE   11
  SDIIS (wt  1.000):  0.0000  0.0000 -0.0000 -0.0002 -0.0016 -0.0226  1.0244
  DIIS coefficients:  0.0000  0.0000 -0.0000 -0.0002 -0.0016 -0.0226  1.0244
 SCF Error: norm([F,P])=      0.000000175567, max([F,P])=      0.000000090743
 orbitals (Q,E):
 ---------------
 S :1...3            ( 2.00    -6.3922)  ( 2.00    -0.5136)  ( 0.00     0.1136)
 P :1...3            ( 6.00    -4.5676)  ( 3.00    -0.2024)  ( 0.00     0.0804)
 D :1...1            ( 0.00     0.3830)

 CYCLE   12
  SDIIS (wt  1.000): -0.0000 -0.0000 -0.0005 -0.0247  1.0252
  DIIS coefficients: -0.0000 -0.0000 -0.0005 -0.0247  1.0252
 SCF Error: norm([F,P])=      0.000000002285, max([F,P])=      0.000000001028
 orbitals (Q,E):
 ---------------
 S :1...3            ( 2.00    -6.3922)  ( 2.00    -0.5136)  ( 0.00     0.1136)
 P :1...3            ( 6.00    -4.5676)  ( 3.00    -0.2024)  ( 0.00     0.0804)
 D :1...1            ( 0.00     0.3830)

 SCF CONVERGED

 CYCLE   13
1
 ***************************************************************************************************



                                                *******************
                                                *  R E S U L T S  *
                                                *******************
  
 *** Using FIT density in Focky
  SDIIS (wt  1.000):  0.0000  0.0017  0.0326  0.9657
  DIIS coefficients:  0.0000  0.0017  0.0326  0.9657
 SCF Error: norm([F,P])=      0.000000000342, max([F,P])=      0.000000000172

 Scaled ZORA Orbital Energies, per Irrep and Spin:
 =================================================
                        Occup              E (au)              E (eV)       Diff (eV) with prev. cycle
                        -----      --------------------        ------       --------------------------
 S
               1        2.000     -0.63922369009056E+01      -173.942               8.75E-09
               2        2.000     -0.51357095789531E+00       -13.975               6.90E-09
               3        0.000      0.11360419341918E+00         3.091
               4        0.000      0.13218598554508E+01        35.970
               5        0.000      0.10430275582036E+02       283.822
 P
               1        6.000     -0.45676340295409E+01      -124.292               8.74E-09
               2        3.000     -0.20235270966723E+00        -5.506               5.88E-09
               3        0.000      0.80400995303665E-01         2.188
               4        0.000      0.71612464912880E+00        19.487
               5        0.000      0.95392466931961E+01       259.576
 D
               1        0.000      0.38299165710671E+00        10.422


 Partially Occupied:
               2 P                -0.20235270966723E+00
  
 HOMO :        2 S                -0.51357095789531E+00
 LUMO :        3 P                 0.80400995303665E-01
  


 Orbital Energies, all Irreps
 ========================================

 Irrep        no.  (spin)   Occup              E (au)                E (eV)
 ---------------------------------------------------------------------------
 S             1             2.00       -0.63922369009056E+01      -173.9416
 P             1             6.00       -0.45676340295409E+01      -124.2916
 S             2             2.00       -0.51357095789531E+00       -13.9750
 P             2             3.00       -0.20235270966723E+00        -5.5063
 P             3             0.00        0.80400995303665E-01         2.1878
 S             3             0.00        0.11360419341918E+00         3.0913
 D             1             0.00        0.38299165710671E+00        10.4217
 P             4             0.00        0.71612464912880E+00        19.4867
 S             4             0.00        0.13218598554508E+01        35.9696
 P             5             0.00        0.95392466931961E+01       259.5761
 S             5             0.00        0.10430275582036E+02       283.8222


 Scaled ZORA Orbital Energies of the Core Orbitals:
 ==================================================

 (Note that the atoms are grouped by atomtype, see the labels, and may hence NOT be in input order)

 AtomType  Orbital  Atom                   E (au)                        E (eV)
 --------  -------  ----           --------------------        ----------------
 P           1S        1          -0.76588588395026E+02               -2084.082



 =======================================
 M U L L I K E N   P O P U L A T I O N S
 =======================================
  
 The survey below gives for each atom:
 a) the total charge (Z minus electrons)
 b) the net spin polarization (nr of electrons spin-A minus spin-B)
 c) for each spin the atomic electron valence density (integrated) per L-value.

 Atom              Charge    Spin density          S         P         D         F
 ----              ------    ------------       ------    ------    ------    ------
 1 P              -0.0000                       4.0000    9.0000    0.0000    0.0000

 Populations of individual BAS functions
 ----------------------------------------
 1 P           -0.0481  1.4990  0.5077  0.7973  0.7973  0.7973  1.2052  1.2052  1.2052  0.3372
                1.0986  0.6057  0.1369  0.1369  0.1369  0.4144  0.4144  0.4144  0.4462  0.4462
                0.4462  0.0000  0.0000  0.0000  0.0000  0.0000  0.0000

 Gross Charges per Atom (Z minus electrons)
 ==========================================
            -0.0000
 Net Total: -0.00000000



 =======================================================================
 Electrostatic potential at the Nuclei due to electrons and other nuclei
 =======================================================================
  
         Atom                  Potential
         ----                  ---------
     1)   P                  54.30955117
 
 
 ========================
 No memory problems found
 ========================
 
 Maximum number of active allocate calls:         389
 
 *******************************************************************************

                             A D F   E X I T
 NORMAL TERMINATION



 =================
 Timing Statistics
 =================
  
 Total Used :                     CPU=        0.57      System=        0.05     Elapsed=        0.65

 Calls  Section                     ( Mean, Percentage )
 ---------------------------------------------------------------------------------------------------
     3  ><      ................      0.00    0.70             0.00    0.00             0.00    0.71
     1  INIT    ................      0.07   11.97             0.00    8.33             0.08   11.54
     1  GEOMET  ................      0.01    2.11             0.01   16.67             0.03    3.89
     1  INPUTA  ................      0.00    0.70             0.00    0.00             0.00    0.56
     1  MAINSY  ................      0.01    1.41             0.00    8.33             0.02    2.39
     1  SYMFIT  ................      0.00    0.00             0.00    0.00             0.00    0.25
     1  CORORT  ................      0.00    0.00             0.00    0.00             0.00    0.26
     1  SYMORB  ................      0.00    0.70             0.00    0.00             0.00    0.14
     1  CLSMAT  ................      0.00    0.70             0.00    0.00             0.01    0.88
     1  ORTHON  ................      0.00    0.70             0.00    0.00             0.01    0.88
     1  GENPT   ................      0.02    3.52             0.00    0.00             0.02    2.95
     1  PTBAS   ................      0.00    0.00             0.00    8.33             0.01    0.81
    13  FOCKY   ................      0.03   64.08             0.00   50.00             0.03   60.63
    13  FOCKTR  ................      0.00    2.11             0.00    0.00             0.00    1.18
    13  SDIIS   ................      0.00    4.23             0.00    8.33             0.00    5.87
     1  COREPS  ................      0.02    4.23             0.00    0.00             0.02    3.74
     1  POPAN   ................      0.00    0.70             0.00    0.00             0.01    0.79
     1  DEBYE   ................      0.00    0.00             0.00    0.00             0.00    0.33
     1  EXIT PROCEDURE .........      0.01    2.11             0.00    0.00             0.01    2.20


 Currently Open Files (EXIT00)
 ====================

 Unit    Access Format  Status   Type       Ident (file)
 -------------------------------------------------------
   3      SEQ    FORM   TRANSP  NORMAL      LOGFILE
                                          ( logfile )

 ***************************************************************************************************
 (LOGFILE)
 <Mar08-2023> <00:38:02>  DIRAC 2019  RunTime: Mar08-2023 00:38:02  Nodes: 1  Procs: 1
 <Mar08-2023> <00:38:02>  NORMAL TERMINATION
 <Mar08-2023> <00:38:02>  END
 <Mar08-2023> <00:38:02>  ADF 2019  RunTime: Mar08-2023 00:38:02  Nodes: 1  Procs: 1
 <Mar08-2023> <00:38:02>  Hydrogen (TZP)
 <Mar08-2023> <00:38:02>  RunType   : CREATE
 <Mar08-2023> <00:38:02>  Net Charge: 0 (Nuclei minus Electrons)
 <Mar08-2023> <00:38:02>  Symmetry  : ATOM
  Coordinates
    Atom         X           Y           Z   (Angstrom)
    1.H         0.000000    0.000000    0.000000
 <Mar08-2023> <00:38:02>  >>>> CORORT
 <Mar08-2023> <00:38:02>  >>>> CLSMAT
 <Mar08-2023> <00:38:02>  >>>> ORTHON
 <Mar08-2023> <00:38:02>  >>>> GENPT
 <Mar08-2023> <00:38:02>  Block Length=  64
 <Mar08-2023> <00:38:02>  >>>> PTBAS
 <Mar08-2023> <00:38:02>  >>>> CYCLE
 <Mar08-2023> <00:38:02>              |Error|         MaxErr       Wt(A-DIIS)
 <Mar08-2023> <00:38:02>      1      0.00000000      0.00000000
 <Mar08-2023> <00:38:02>      2      0.03153787      0.03011049
 <Mar08-2023> <00:38:02>      3      0.00861799      0.00834303    100.0
 <Mar08-2023> <00:38:02>      4      0.00173235      0.00171862      0.7
 <Mar08-2023> <00:38:02>      5      0.00004367      0.00003977      0.0
 <Mar08-2023> <00:38:02>      6      0.00000238      0.00000216      0.0
 <Mar08-2023> <00:38:02>      7      0.00000001      0.00000001      0.0
 <Mar08-2023> <00:38:02>  SCF converged
 <Mar08-2023> <00:38:02>      8      0.00000000      0.00000000      0.0
 <Mar08-2023> <00:38:02>  >>>> POPAN
 <Mar08-2023> <00:38:02>  >>>> DEBYE
 <Mar08-2023> <00:38:02>  NORMAL TERMINATION
 <Mar08-2023> <00:38:02>  END
 <Mar08-2023> <00:38:03>  DIRAC 2019  RunTime: Mar08-2023 00:38:03  Nodes: 1  Procs: 1
 <Mar08-2023> <00:38:03>  NORMAL TERMINATION
 <Mar08-2023> <00:38:03>  END
 <Mar08-2023> <00:38:03>  ADF 2019  RunTime: Mar08-2023 00:38:03  Nodes: 1  Procs: 1
 <Mar08-2023> <00:38:03>  Phosphorus (TZP, 1s frozen)
 <Mar08-2023> <00:38:03>  RunType   : CREATE
 <Mar08-2023> <00:38:03>  Net Charge: 0 (Nuclei minus Electrons)
 <Mar08-2023> <00:38:03>  Symmetry  : ATOM
  Coordinates
    Atom         X           Y           Z   (Angstrom)
    1.P         0.000000    0.000000    0.000000
 <Mar08-2023> <00:38:03>  >>>> CORORT
 <Mar08-2023> <00:38:03>  >>>> CLSMAT
 <Mar08-2023> <00:38:03>  >>>> ORTHON
 <Mar08-2023> <00:38:03>  >>>> GENPT
 <Mar08-2023> <00:38:03>  Block Length=  76
 <Mar08-2023> <00:38:03>  >>>> PTBAS
 <Mar08-2023> <00:38:03>  >>>> CYCLE
 <Mar08-2023> <00:38:03>              |Error|         MaxErr       Wt(A-DIIS)
 <Mar08-2023> <00:38:03>      1      0.00000000      0.00000000
 <Mar08-2023> <00:38:03>      2     18.57419976      5.72946042    100.0
 <Mar08-2023> <00:38:03>      3      7.89224634      2.59295418    100.0
 <Mar08-2023> <00:38:03>      4      4.38717664      1.76162665    100.0
 <Mar08-2023> <00:38:03>      5      1.32434558      0.46695615    100.0
 <Mar08-2023> <00:38:03>      6      0.89465661      0.32855234    100.0
 <Mar08-2023> <00:38:03>      7      0.15275323      0.05676890     56.3
 <Mar08-2023> <00:38:03>      8      0.06211706      0.02306515     22.3
 <Mar08-2023> <00:38:03>      9      0.00895767      0.00340647      2.4
 <Mar08-2023> <00:38:03>     10      0.00016365      0.00006372      0.0
 <Mar08-2023> <00:38:04>     11      0.00000018      0.00000009      0.0
 <Mar08-2023> <00:38:04>     12      0.00000000      0.00000000      0.0
 <Mar08-2023> <00:38:04>  SCF converged
 <Mar08-2023> <00:38:04>     13      0.00000000      0.00000000      0.0
 <Mar08-2023> <00:38:04>  >>>> POPAN
 <Mar08-2023> <00:38:04>  >>>> DEBYE
 <Mar08-2023> <00:38:04>  NORMAL TERMINATION
 <Mar08-2023> <00:38:04>  END

 *******************************************************************************
 *                                                                             *
 *  -------------------------------------                                      *
 *   Amsterdam Density Functional  (ADF)         2019                          *
 *  -------------------------------------                                      *
 *                                               r74351 2019-04-25             *
 *                                                                             *
 *                                                                             *
 *                            =====================                            *
 *                            |                   |                            *
 *                            |     D I R A C     |                            *
 *                            |                   |                            *
 *                            =====================                            *
 *                                                                             *
 *                                                                             *
 *   Online information and documentation:  https://www.scm.com/support/       *
 *   E-mail:  support@scm.com   info@scm.com                                   *
 *                                                                             *
 *   Scientific publications using ADF results must be properly referenced     *
 *   See the User Manuals (or the web site) for recommended citations          *
 *   The terms and conditions of the End User License Agreement apply to       *
 *   the use of ADF, https://www.scm.com/license-terms/                        *
 *                                                                             *
 **********************  x86_64_linux_intel / intelmpi  ************************
 
 Licensed to: Dr. Carles Bo / Institute of Chemical Research of Catalonia ( (ICIQ) / Tarragona / Spain 2022-11-28 14:37:29
 SCM User ID: u7609
  
 DIRAC 2019  RunTime: Mar08-2023 00:38:04  Nodes: 1  Procs: 1

 Temporary files are created in /scratch/kid_0.94841479

1
 MOLYBDENUM ATOM 3d CORE RELATIVISTIC, Point Nuc, A and c fro
 N J RN H ZN XION ANUC CLIGHT
 5000   15100.00000000197.36710137 42.00000000  0.00000000   97.905406  0.1370360E+03
  PH   PHI     EPS        DEL        DELRVR
  0.30  0.30     2500.00  0.00001000  0.00001000
 IDIRC  NC1  NDEBU NPRIN  IPUN IRCOR IWCOR
   1   300     0     0     0     0     9
   XALPHA      XLATTER      RNUC
  0.70000000  0.00000000  0.00000000 Point Charge
   XN   XL   XJ      XE          XZ      XDELL
  1.0  0.0  0.5   -1500.000       2.000     0.00000
  2.0  0.0  0.5    -325.000       2.000     0.00000
  2.0  1.0  0.5    -325.000       2.000     0.00000
  2.0  1.0  1.5    -325.000       4.000     0.00000
  3.0  0.0  0.5     -70.000       2.000     0.00000
  3.0  1.0  0.5     -70.000       2.000     0.00000
  3.0  1.0  1.5     -70.000       4.000     0.00000
  3.0  2.0  1.5     -60.000       4.000     0.00000
  3.0  2.0  2.5     -60.000       6.000     0.00000
  4.0  0.0  0.5     -10.000       2.000     0.00000
  4.0  1.0  0.5     -10.000       2.000     0.00000
  4.0  1.0  1.5     -10.000       4.000     0.00000
  4.0  2.0  1.5      -1.000       4.000     0.00000
  4.0  2.0  2.5      -1.000       1.000     0.00000
  5.0  0.0  0.5      -0.500       1.000     0.00000
 ICORP=  0  NPCL=  0  DEMP=0.00  PEPS=0.000000
 R(1)=  0.1000000E-08 D=  0.1005080E+01 RNUC=  0.0000000E+00
 converged at cycle   41  DENSITY AVERAGING    0.2400
  MAXIMUM ERROR IN R.V(R) IS   0.93203452E-05
 Q,EY,EV,EZ,ESUM,ETOT,RHO  0.420000E+02 -0.161898E+03 -0.662509E+04 -0.978397E+04 -0.242700E+04 -0.404691E+04  0.342495E-11


 DIRAC CALCULATION
1                    MOLYBDENUM ATOM 3d CORE RELATIVISTIC, Point Nuc, A and c from libtc


 EXCHANGE COEFFICIENT=  0.7000000           TAIL CORRECTION=  0.           NUCLEAR RADIUS=  0.000E+00
0                       ORBITAL    N    L    J     ELECTRONS     EIGENVALUE                DELTA OF EIGENV.

                          1S1/2  1.0  0.0  0.5     2.000       -0.7276812E+03                 0.2822496E-04
                          2S1/2  2.0  0.0  0.5     2.000       -0.1028194E+03                 0.1725465E-04
                          2P1/2  2.0  1.0  0.5     2.000       -0.9468016E+02                 0.1864325E-04
                          2P3/2  2.0  1.0  1.5     4.000       -0.9076266E+02                 0.1832345E-04
                          3S1/2  3.0  0.0  0.5     2.000       -0.1747094E+02                 0.5979346E-05
                          3P1/2  3.0  1.0  0.5     2.000       -0.1436574E+02                 0.6275079E-05
                          3P3/2  3.0  1.0  1.5     4.000       -0.1371946E+02                 0.5984426E-05
                          3D3/2  3.0  2.0  1.5     4.000       -0.8203697E+01                 0.6709395E-05
                          3D5/2  3.0  2.0  2.5     6.000       -0.8081013E+01                 0.6610438E-05
                          4S1/2  4.0  0.0  0.5     2.000       -0.2338238E+01                 0.2446887E-06
                          4P1/2  4.0  1.0  0.5     2.000       -0.1452045E+01                 0.2971982E-06
                          4P3/2  4.0  1.0  1.5     4.000       -0.1358936E+01                 0.3186552E-06
                          4D3/2  4.0  2.0  1.5     4.000       -0.1184046E+00                 0.3378248E-06
                          4D5/2  4.0  2.0  2.5     1.000       -0.1108976E+00                 0.3342679E-06
                          5S1/2  5.0  0.0  0.5     1.000       -0.1320069E+00                 0.9757102E-07


                                        NUCLEAR CHARGE=   42.000000
                            INTEGRAL OF CHARGE DENSITY=   42.000000
                           SUM OF THE ORBITAL ENERGIES=  -2426.9970
                                          TOTAL ENERGY=  -4046.9128
                                        KINETIC ENERGY=   4198.0886
                             NUCLEAR ATTRACTION ENERGY=  -9783.9685
                             ELECTRON REPULSION ENERGY=   1660.3903
                                       EXCHANGE ENERGY=   -121.4232

 *******************************************************************************

                             D I R A C   E X I T
 NORMAL TERMINATION



 =================
 Timing Statistics
 =================
  
 Total Used :                     CPU=        0.45      System=        0.01     Elapsed=        0.47

 Calls  Section                     ( Mean, Percentage )
 ---------------------------------------------------------------------------------------------------
     2  ><      ................      0.00    0.00             0.00    0.00             0.00    0.00
     1  EXIT PROCEDURE .........      0.45  100.00             0.01  100.00             0.47  100.00


 Currently Open Files (EXIT00)
 ====================

 Unit    Access Format  Status   Type       Ident (file)
 -------------------------------------------------------
   3      SEQ    FORM   TRANSP  NORMAL      LOGFILE
                                          ( logfile )
 
Create Mo   file=TZP-Mo.3d
XC
  GGA PBE
End
relativistic ZORA
Corepotentials t12.rel
End

 *******************************************************************************
 *                                                                             *
 *  -------------------------------------                                      *
 *   Amsterdam Density Functional  (ADF)         2019                          *
 *  -------------------------------------                                      *
 *                                               r74351 2019-04-25             *
 *                                                                             *
 *                                                                             *
 *                              =================                              *
 *                              |               |                              *
 *                              |     A D F     |                              *
 *                              |               |                              *
 *                              =================                              *
 *                                                                             *
 *                                                                             *
 *   Online information and documentation:  https://www.scm.com/support/       *
 *   E-mail:  support@scm.com   info@scm.com                                   *
 *                                                                             *
 *   Scientific publications using ADF results must be properly referenced     *
 *   See the User Manuals (or the web site) for recommended citations          *
 *   The terms and conditions of the End User License Agreement apply to       *
 *   the use of ADF, https://www.scm.com/license-terms/                        *
 *                                                                             *
 **********************  x86_64_linux_intel / intelmpi  ************************
 
 Licensed to: Dr. Carles Bo / Institute of Chemical Research of Catalonia ( (ICIQ) / Tarragona / Spain 2022-11-28 14:37:29
 SCM User ID: u7609
  
 ADF 2019  RunTime: Mar08-2023 00:38:04  Nodes: 1  Procs: 1

 Temporary files are created in /scratch/kid_0.1387956967

 Molybdenum (TZP, 3d frozen)



 ===========================
 A T T A C H E D   F I L E S
 ===========================
  
 CREATE - Data File:    TZP-Mo.3d
                        Molybdenum (TZP, 3d frozen)
 Core Potentials:
         file : t12.rel



 ===============================
 M O D E L   P A R A M E T E R S
 ===============================
  
 DENSITY FUNCTIONAL POTENTIAL (scf)
    LDA:                               PW92                                    == Not Default ==
    Gradient Corrections:              PBEc PBEx                               == Not Default ==

 SPIN  (restricted / unrestr.)
    Molecule:                          Restricted                               

 OTHER ASPECTS
    Relativistic Corrections:          scalar (ZORA,MAPA)                      == Not Default ==

    Nuclear Charge Density Model:      Point Charge Nuclei                      
    Core Treatment:                    Frozen Orbital(s)                        

    Hyperfine or Zeeman Interaction:   ---                                      



 =====================================
 S Y M M E T R Y ,   E L E C T R O N S
 =====================================
  
 Symmetry: ATOM

 Irreducible Representations, including subspecies
 -------------------------------------------------
 S
 P:x  P:y  P:z
 D:z2  D:x2-y2  D:xy  D:xz  D:yz
 F:z3  F:z  F:xyz  F:z2x  F:z2y  F:x  F:y


 Configuration of Valence Electrons
 ==================================

          Occupation Numbers
          -------------------------------------------------
 S        2 1
 P        6
 D        5
 F        0
          -------------------------------------------------

 Total:   14

 Net Charge: 0 (Nuclei minus Electrons)

 Preset values for MO occupations will be applied through SCF cycle no. 1000000
 Thereafter, the program will assign electrons to MOs that are spatially
 similar to the occupied MOs in a "reference" cycle ("KeepOrbitals").
 The reference cycle is always the PREVIOUS cycle: it will evolve with
 the SCF procedure.



 ================================
 (Slater-type)  F U N C T I O N S  ***  (Basis and Fit)  ***
 ================================
  

 Atom Type    1  (Mo)
 ==============

 Valence Basis Sets:  18
 -----------------------
   1 S   30.500000
   2 S   17.750000
   3 S    8.350000
   2 P   18.600000
   3 P    8.700000
   3 D   10.050000
   4 S    5.100000
   4 S    3.300000
   5 S    2.150000
   5 S    1.350000
   5 S    0.870000
   4 P    4.950000
   4 P    3.300000
   4 P    2.300000
   4 D    3.500000
   4 D    1.850000
   4 D    0.970000
   5 P    1.350000

 Frozen Core Shells
 ------------------
    S:  3
    P:  2
    D:  1


 BAS: List of all Elementary Cartesian Basis Functions
 =====================================================

 The numbering in the list below (to the right of the function characteristics) is referred
 to in print-outs of MO eigenvectors and Mulliken populations in the BAS representation
 (as contrasted to the SFO representation).

 Notes:
 1. The functions are characterized by a polynomial prefactor (powers of x,y,z and r) and
    an exponential decay factor alpha.
 2. Since the basis sets are specific for an atom TYPE, the individual functions occur on
    all atoms of that type.
 3. The word 'Core' in the left margin signals that it is a Core Function (CF) : not a
    degree of freedom in the valence set, but only used to ensure orthogonalization of
    the other valence basis functions on the frozen Core Orbitals.


 (power of) X  Y  Z  R     Alpha  on Atom
            ==========     =====     ==========

 Mo                                   1
                                  ---------------------------------------------------------------------------
    Core    0  0  0  0    30.500      1
    Core    0  0  0  1    17.750      2
    Core    0  0  0  2     8.350      3
    Core    1  0  0  0    18.600      4
    Core    0  1  0  0    18.600      5
    Core    0  0  1  0    18.600      6
    Core    1  0  0  1     8.700      7
    Core    0  1  0  1     8.700      8
    Core    0  0  1  1     8.700      9
    Core    2  0  0  0    10.050     10
    Core    1  1  0  0    10.050     11
    Core    1  0  1  0    10.050     12
    Core    0  2  0  0    10.050     13
    Core    0  1  1  0    10.050     14
    Core    0  0  2  0    10.050     15
            0  0  0  3     5.100     16
            0  0  0  3     3.300     17
            0  0  0  4     2.150     18
            0  0  0  4     1.350     19
            0  0  0  4     0.870     20
            1  0  0  2     4.950     21
            0  1  0  2     4.950     22
            0  0  1  2     4.950     23
            1  0  0  2     3.300     24
            0  1  0  2     3.300     25
            0  0  1  2     3.300     26
            1  0  0  2     2.300     27
            0  1  0  2     2.300     28
            0  0  1  2     2.300     29
            2  0  0  1     3.500     30
            1  1  0  1     3.500     31
            1  0  1  1     3.500     32
            0  2  0  1     3.500     33
            0  1  1  1     3.500     34
            0  0  2  1     3.500     35
            2  0  0  1     1.850     36
            1  1  0  1     1.850     37
            1  0  1  1     1.850     38
            0  2  0  1     1.850     39
            0  1  1  1     1.850     40
            0  0  2  1     1.850     41
            2  0  0  1     0.970     42
            1  1  0  1     0.970     43
            1  0  1  1     0.970     44
            0  2  0  1     0.970     45
            0  1  1  1     0.970     46
            0  0  2  1     0.970     47
            1  0  0  3     1.350     48
            0  1  0  3     1.350     49
            0  0  1  3     1.350     50

 Total number of charge fitting functions (nprimf)       230
 Total number of Cartesian basis functions (naos)         50
 Total number of Cartesian core functions  (ncos)         15



 BAS: List of all Elementary Cartesian Basis Functions
 =====================================================

 The numbering in the list below (to the right of the function characteristics) is referred
 to in print-outs of MO eigenvectors and Mulliken populations in the BAS representation
 (as contrasted to the SFO representation).

 Notes:
 1. The functions are characterized by a polynomial prefactor (powers of x,y,z and r) and
    an exponential decay factor alpha.
 2. Since the basis sets are specific for an atom TYPE, the individual functions occur on
    all atoms of that type.
 3. The word 'Core' in the left margin signals that it is a Core Function (CF) : not a
    degree of freedom in the valence set, but only used to ensure orthogonalization of
    the other valence basis functions on the frozen Core Orbitals.


 (power of) X  Y  Z  R     Alpha  on Atom
            ==========     =====     ==========

 Mo                                   1
                                  ---------------------------------------------------------------------------
    Core    0  0  0  0    30.500      1
    Core    0  0  0  1    17.750      2
    Core    0  0  0  2     8.350      3
    Core    1  0  0  0    18.600      4
    Core    0  1  0  0    18.600      5
    Core    0  0  1  0    18.600      6
    Core    1  0  0  1     8.700      7
    Core    0  1  0  1     8.700      8
    Core    0  0  1  1     8.700      9
    Core    2  0  0  0    10.050     10
    Core    1  1  0  0    10.050     11
    Core    1  0  1  0    10.050     12
    Core    0  2  0  0    10.050     13
    Core    0  1  1  0    10.050     14
    Core    0  0  2  0    10.050     15
            0  0  0  3     5.100     16
            0  0  0  3     3.300     17
            0  0  0  4     2.150     18
            0  0  0  4     1.350     19
            0  0  0  4     0.870     20
            1  0  0  2     4.950     21
            0  1  0  2     4.950     22
            0  0  1  2     4.950     23
            1  0  0  2     3.300     24
            0  1  0  2     3.300     25
            0  0  1  2     3.300     26
            1  0  0  2     2.300     27
            0  1  0  2     2.300     28
            0  0  1  2     2.300     29
            2  0  0  1     3.500     30
            1  1  0  1     3.500     31
            1  0  1  1     3.500     32
            0  2  0  1     3.500     33
[...]
 <Mar08-2023> <02:30:30>      3      0.18748140      0.01261015    100.0
 <Mar08-2023> <02:30:38>      4      0.14087659      0.01374907     12.9
 <Mar08-2023> <02:30:46>      5      0.34370366      0.04024007    100.0
 <Mar08-2023> <02:30:55>      6      0.07030078      0.01017487      9.3
 <Mar08-2023> <02:31:03>      7      0.07456284      0.01095537      9.3
 <Mar08-2023> <02:31:11>      8      0.02971211      0.00327133      2.3
 <Mar08-2023> <02:31:20>      9      0.01683737      0.00188612      0.9
 <Mar08-2023> <02:31:28>     10      0.00887669      0.00114053      0.1
 <Mar08-2023> <02:31:36>     11      0.00297430      0.00041719      0.0
 <Mar08-2023> <02:31:45>     12      0.00124067      0.00011548      0.0
 <Mar08-2023> <02:31:53>     13      0.00173359      0.00020171      0.0
 <Mar08-2023> <02:32:01>     14      0.00118583      0.00015951      0.0
 <Mar08-2023> <02:32:09>     15      0.00027375      0.00003935      0.0
 <Mar08-2023> <02:32:18>     16      0.00012511      0.00001406      0.0
 <Mar08-2023> <02:32:26>     17      0.00002516      0.00000276      0.0
 <Mar08-2023> <02:32:34>     18      0.00004721      0.00000569      0.0
 <Mar08-2023> <02:32:42>     19      0.00002020      0.00000230      0.0
 <Mar08-2023> <02:32:50>     20      0.00001680      0.00000155      0.0
 <Mar08-2023> <02:32:59>     21      0.00000885      0.00000126      0.0
 <Mar08-2023> <02:33:07>     22      0.00000241      0.00000024      0.0
 <Mar08-2023> <02:33:09>  SCF converged
 <Mar08-2023> <02:33:15>     23      0.00000121      0.00000013      0.0
 <Mar08-2023> <02:33:18>  >>>> TOTEN
 <Mar08-2023> <02:33:29>  >>>> POPAN
 <Mar08-2023> <02:33:30>  >>>> DEBYE
 <Mar08-2023> <02:33:30>  >>>> ENGRAD
 <Mar08-2023> <02:34:44>  current energy                              -14.29463838 Hartree
 <Mar08-2023> <02:34:44>  energy change                      -0.00001274     0.00100000    T
 <Mar08-2023> <02:34:44>  constrained gradient max            0.00083610     0.00100000    T
 <Mar08-2023> <02:34:44>  constrained gradient rms            0.00023317     0.00066667    T
 <Mar08-2023> <02:34:44>  gradient max                        0.00083610
 <Mar08-2023> <02:34:44>  gradient rms                        0.00023317
 <Mar08-2023> <02:34:44>  cart. step max                      0.00230039     0.01000000    T
 <Mar08-2023> <02:34:44>  cart. step rms                      0.00081388     0.00666667    T
 <Mar08-2023> <02:34:44>  GEOMETRY CONVERGED
 <Mar08-2023> <02:34:44>  Calculating Energy Terms for Final Geometry
  Coordinates in Geometry Cycle 23
    Atom         X           Y           Z   (Angstrom)
    1.Mo        0.614483   -3.073095   -1.888516
    2.O        -0.118709    0.092099   -5.303143
    3.Mo       -0.483152    3.131128    1.728838
    4.Mo        2.991341   -0.717034    1.927724
    5.Mo       -0.150401   -0.081437   -3.559518
    6.Mo        2.495347    2.544213    0.018000
    7.Mo       -0.109751   -0.072551    3.599891
    8.O         3.848196    3.642791    0.005269
    9.O        -0.054501    0.140903    5.337442
   10.Mo        0.354648   -3.059248    1.849334
   11.Mo        3.015957   -0.570556   -1.918407
   12.Mo       -0.494720    3.143610   -1.708854
   13.O         0.481665   -0.647406   -1.281945
   14.O        -1.688936    0.007276    0.000880
   15.O         0.299707    1.543657    0.014583
   16.O         0.471258   -0.679863    1.270993
   17.O        -1.349276   -3.064291    1.346048
   18.O         0.068965    1.729154   -2.974390
   19.O        -1.818802   -0.193703    3.232903
   20.O         2.933205    1.354402   -1.381924
   21.O        -2.149257    2.141832   -1.547669
   22.O         3.240659   -0.855932   -0.017482
   23.O        -2.142767    2.146113    1.559442
   24.O         0.952395   -3.317157   -0.000140
   25.O         0.099636    1.757425    2.973204
   26.O        -1.276745   -3.105542   -1.379011
   27.O         2.946529    1.321153    1.303883
   28.O        -1.848750   -0.262226   -3.178479
   29.O         2.025518   -0.167425   -3.421135
   30.O        -0.970200    4.408098   -2.800687
   31.O         1.327567    3.522360   -1.357565
   32.O         0.180277   -2.040066    3.479020
   33.O         2.459674   -2.422941   -2.049646
   34.O        -0.907033    3.978066    0.003202
   35.O         2.446606   -2.459568    2.056395
   36.P        -0.151935    0.014252   -0.000371
   37.O         0.617581   -4.655429    2.517453
   38.O         2.055606   -0.105292    3.390562
   39.O         0.168698   -2.094907   -3.450725
   40.O         1.343984    3.543186    1.336611
   41.O         0.831624   -4.675005   -2.532571
   42.O         4.650843   -0.663790   -2.511267
   43.O        -0.955306    4.409768    2.805019
   44.O         4.643938   -0.760634    2.493026
   45.H        -2.057096    1.267462    1.062520
   46.H        -2.062305    1.262580   -1.052446
   47.H        -1.406534   -3.002490   -0.391991
 <Mar08-2023> <02:34:44>  >>>> CORORT
 <Mar08-2023> <02:34:44>  >>>> CLSMAT
 <Mar08-2023> <02:34:44>  >>>> ORTHON
 <Mar08-2023> <02:34:44>  >>>> GENPT
 <Mar08-2023> <02:34:45>  Block Length= 128
 <Mar08-2023> <02:34:45>  >>>> PTBAS
 <Mar08-2023> <02:34:58>  combining surface points...
 <Mar08-2023> <02:34:58>  combining surface points...
 <Mar08-2023> <02:34:58>  combining surface points...
 <Mar08-2023> <02:34:58>  >>>> CYCLE
 <Mar08-2023> <02:35:09>              |Error|         MaxErr       Wt(A-DIIS)
 <Mar08-2023> <02:35:09>      1      0.15671568      0.01548402
 <Mar08-2023> <02:35:18>      2      0.70702999      0.07750751    100.0
 <Mar08-2023> <02:35:27>      3      0.18734410      0.01663917    100.0
 <Mar08-2023> <02:35:35>      4      0.14149575      0.01794193     17.1
 <Mar08-2023> <02:35:44>      5      0.36538602      0.05367587    100.0
 <Mar08-2023> <02:35:52>      6      0.06085651      0.01109589     10.2
 <Mar08-2023> <02:36:00>      7      0.07726338      0.01440670    100.0
 <Mar08-2023> <02:36:09>      8      0.07336943      0.00873434    100.0
 <Mar08-2023> <02:36:17>      9      0.01299508      0.00167864      0.7
 <Mar08-2023> <02:36:25>     10      0.00920424      0.00136566      0.4
 <Mar08-2023> <02:36:34>     11      0.00318196      0.00051316      0.0
 <Mar08-2023> <02:36:42>     12      0.00138699      0.00015717      0.0
 <Mar08-2023> <02:36:50>     13      0.00173849      0.00026758      0.0
 <Mar08-2023> <02:36:58>     14      0.00073086      0.00009358      0.0
 <Mar08-2023> <02:37:07>     15      0.00018108      0.00001884      0.0
 <Mar08-2023> <02:37:15>     16      0.00025076      0.00002879      0.0
 <Mar08-2023> <02:37:23>     17      0.00008190      0.00001036      0.0
 <Mar08-2023> <02:37:31>     18      0.00003694      0.00000548      0.0
 <Mar08-2023> <02:37:39>     19      0.00001878      0.00000206      0.0
 <Mar08-2023> <02:37:48>     20      0.00001569      0.00000185      0.0
 <Mar08-2023> <02:37:56>     21      0.00001698      0.00000351      0.0
 <Mar08-2023> <02:38:04>     22      0.00000871      0.00000114      0.0
 <Mar08-2023> <02:38:12>     23      0.00000379      0.00000050      0.0
 <Mar08-2023> <02:38:14>  SCF converged
 <Mar08-2023> <02:38:20>     24      0.00000135      0.00000023      0.0
 <Mar08-2023> <02:38:27>  >>>> TOTEN
 <Mar08-2023> <02:38:53>  QTAIM: determining topology...
 <Mar08-2023> <02:39:19>  >>>> POPAN
 <Mar08-2023> <02:39:19>  >>>> DEBYE
 <Mar08-2023> <02:39:19>  >>>> AMETS
 <Mar08-2023> <02:39:19>  >>>> POPUL
 <Mar08-2023> <02:39:20>   Bond Energy         -14.29463838 a.u.
 <Mar08-2023> <02:39:20>   Bond Energy        -388.97690157 eV
 <Mar08-2023> <02:39:20>   Bond Energy       -8970.02       kcal/mol
 <Mar08-2023> <02:39:20>  >>>> ENHESS
 <Mar08-2023> <02:40:01>  === NUCLEUS:     1
 <Mar08-2023> <02:50:27>  === NUCLEUS:     2
 <Mar08-2023> <02:59:41>  === NUCLEUS:     3
 <Mar08-2023> <03:08:45>  === NUCLEUS:     4
 <Mar08-2023> <03:18:08>  === NUCLEUS:     5
 <Mar08-2023> <03:27:32>  === NUCLEUS:     6
 <Mar08-2023> <03:36:35>  === NUCLEUS:     7
 <Mar08-2023> <03:45:59>  === NUCLEUS:     8
 <Mar08-2023> <03:55:13>  === NUCLEUS:     9
 <Mar08-2023> <04:04:37>  === NUCLEUS:    10
 <Mar08-2023> <04:13:06>  === NUCLEUS:    11
 <Mar08-2023> <04:21:49>  === NUCLEUS:    12
 <Mar08-2023> <04:30:18>  === NUCLEUS:    13
 <Mar08-2023> <04:39:09>  === NUCLEUS:    14
 <Mar08-2023> <04:47:29>  === NUCLEUS:    15
 <Mar08-2023> <04:56:09>  === NUCLEUS:    16
 <Mar08-2023> <05:04:59>  === NUCLEUS:    17
 <Mar08-2023> <05:13:28>  === NUCLEUS:    18
 <Mar08-2023> <05:22:10>  === NUCLEUS:    19
 <Mar08-2023> <05:30:40>  === NUCLEUS:    20
 <Mar08-2023> <05:39:21>  === NUCLEUS:    21
 <Mar08-2023> <05:48:12>  === NUCLEUS:    22
 <Mar08-2023> <05:56:52>  === NUCLEUS:    23
 <Mar08-2023> <06:05:44>  === NUCLEUS:    24
 <Mar08-2023> <06:14:14>  === NUCLEUS:    25
 <Mar08-2023> <06:22:54>  === NUCLEUS:    26
 <Mar08-2023> <06:31:37>  === NUCLEUS:    27
 <Mar08-2023> <06:40:08>  === NUCLEUS:    28
 <Mar08-2023> <06:48:38>  === NUCLEUS:    29
 <Mar08-2023> <06:57:20>  === NUCLEUS:    30
 <Mar08-2023> <07:05:50>  === NUCLEUS:    31
 <Mar08-2023> <07:14:30>  === NUCLEUS:    32
 <Mar08-2023> <07:23:21>  === NUCLEUS:    33
 <Mar08-2023> <07:32:02>  === NUCLEUS:    34
 <Mar08-2023> <07:40:52>  === NUCLEUS:    35
 <Mar08-2023> <07:49:32>  === NUCLEUS:    36
 <Mar08-2023> <07:58:03>  === NUCLEUS:    37
 <Mar08-2023> <08:06:44>  === NUCLEUS:    38
 <Mar08-2023> <08:15:25>  === NUCLEUS:    39
 <Mar08-2023> <08:24:16>  === NUCLEUS:    40
 <Mar08-2023> <08:32:45>  === NUCLEUS:    41
 <Mar08-2023> <08:41:16>  === NUCLEUS:    42
 <Mar08-2023> <08:49:49>  === NUCLEUS:    43
 <Mar08-2023> <08:58:09>  === NUCLEUS:    44
 <Mar08-2023> <09:07:21>  === NUCLEUS:    45
 <Mar08-2023> <09:16:01>  === NUCLEUS:    46
 <Mar08-2023> <09:24:43>  === NUCLEUS:    47
 <Mar08-2023> <09:33:02>  >>>> CALC_HESS_PMAT
 <Mar08-2023> <09:36:57>  >>>> CALC_HESS_WMAT
 <Mar08-2023> <09:37:27>  Symmetry  : NOSYM
 <Mar08-2023> <09:37:27>  >>>> FRAGM
 <Mar08-2023> <09:37:27>  Geometry symmetry displacement    1 out of    2
  Coordinates in Geometry Cycle 23
    Atom         X           Y           Z   (Angstrom)
    1.Mo        0.614593   -3.073084   -1.888381
    2.O        -0.118964    0.092065   -5.303130
    3.Mo       -0.483346    3.131325    1.728646
    4.Mo        2.991359   -0.717232    1.927615
    5.Mo       -0.150543   -0.081704   -3.559539
    6.Mo        2.495371    2.544216    0.018309
    7.Mo       -0.109698   -0.072302    3.599813
    8.O         3.848232    3.642780    0.005623
    9.O        -0.054322    0.140980    5.337391
   10.Mo        0.354599   -3.059215    1.849499
   11.Mo        3.015933   -0.570333   -1.918510
   12.Mo       -0.494502    3.143354   -1.709035
   13.O         0.481620   -0.647410   -1.281927
   14.O        -1.688934    0.007280    0.000996
   15.O         0.299717    1.543655    0.014584
   16.O         0.471308   -0.679853    1.271007
   17.O        -1.349209   -3.064246    1.345791
   18.O         0.068941    1.729158   -2.974332
   19.O        -1.818757   -0.193903    3.233011
   20.O         2.933159    1.354552   -1.381782
   21.O        -2.149228    2.141945   -1.547397
   22.O         3.240646   -0.855935   -0.017595
   23.O        -2.142806    2.145983    1.559691
   24.O         0.952359   -3.317217   -0.000325
   25.O         0.099676    1.757351    2.973162
   26.O        -1.276762   -3.105467   -1.379259
   27.O         2.946606    1.321007    1.304025
   28.O        -1.848907   -0.261980   -3.178356
   29.O         2.025450   -0.167090   -3.421162
   30.O        -0.970041    4.408003   -2.800656
   31.O         1.327586    3.522468   -1.357290
   32.O         0.180257   -2.040173    3.478960
   33.O         2.459699   -2.422708   -2.049893
   34.O        -0.907004    3.978029    0.003351
   35.O         2.446536   -2.459788    2.056120
   36.P        -0.151933    0.014253   -0.000336
   37.O         0.617436   -4.655503    2.517397
   38.O         2.055697   -0.105628    3.390545
   39.O         0.168665   -2.094736   -3.450771
   40.O         1.344016    3.543072    1.336878
   41.O         0.831758   -4.674904   -2.532656
   42.O         4.650814   -0.663458   -2.511404
   43.O        -0.955437    4.409794    2.805055
   44.O         4.643963   -0.760988    2.492875
   45.H        -2.057095    1.267307    1.062823
   46.H        -2.062330    1.262719   -1.052110
   47.H        -1.406571   -3.002444   -0.392236
 <Mar08-2023> <09:37:27>  >>>> CORORT
 <Mar08-2023> <09:37:28>  >>>> CLSMAT
 <Mar08-2023> <09:37:28>  >>>> ORTHON
 <Mar08-2023> <09:37:28>  >>>> GENPT
 <Mar08-2023> <09:37:28>  Block Length= 128
 <Mar08-2023> <09:37:28>  >>>> PTBAS
 <Mar08-2023> <09:37:41>  combining surface points...
 <Mar08-2023> <09:37:41>  combining surface points...
 <Mar08-2023> <09:37:41>  combining surface points...
 <Mar08-2023> <09:37:41>  >>>> CYCLE
 <Mar08-2023> <09:37:52>              |Error|         MaxErr       Wt(A-DIIS)
 <Mar08-2023> <09:37:52>      1      0.15672000      0.01246990
 <Mar08-2023> <09:38:01>      2      0.70702148      0.06056168    100.0
 <Mar08-2023> <09:38:10>      3      0.18758142      0.01258667    100.0
 <Mar08-2023> <09:38:18>      4      0.14119538      0.01383096     13.0
 <Mar08-2023> <09:38:27>      5      0.34459256      0.04040091    100.0
 <Mar08-2023> <09:38:35>      6      0.07113458      0.01039959      9.5
 <Mar08-2023> <09:38:43>      7      0.07509765      0.01106950      9.5
 <Mar08-2023> <09:38:52>      8      0.03005323      0.00326075      2.3
 <Mar08-2023> <09:39:00>      9      0.01685632      0.00189746      0.9
 <Mar08-2023> <09:39:08>     10      0.00887817      0.00114533      0.1
 <Mar08-2023> <09:39:17>     11      0.00297247      0.00041750      0.0
 <Mar08-2023> <09:39:25>     12      0.00124160      0.00011467      0.0
 <Mar08-2023> <09:39:33>     13      0.00172255      0.00020005      0.0
 <Mar08-2023> <09:39:41>     14      0.00117819      0.00015923      0.0
 <Mar08-2023> <09:39:50>     15      0.00027418      0.00003949      0.0
 <Mar08-2023> <09:39:58>     16      0.00013584      0.00001529      0.0
 <Mar08-2023> <09:40:06>     17      0.00002557      0.00000283      0.0
 <Mar08-2023> <09:40:14>     18      0.00005179      0.00000629      0.0
 <Mar08-2023> <09:40:22>     19      0.00002005      0.00000233      0.0
 <Mar08-2023> <09:40:31>     20      0.00001695      0.00000166      0.0
 <Mar08-2023> <09:40:39>     21      0.00000840      0.00000121      0.0
 <Mar08-2023> <09:40:47>     22      0.00000246      0.00000024      0.0
 <Mar08-2023> <09:40:49>  SCF converged
 <Mar08-2023> <09:40:55>     23      0.00000122      0.00000013      0.0
 <Mar08-2023> <09:40:58>  >>>> TOTEN
 <Mar08-2023> <09:41:01>  >>>> POPAN
 <Mar08-2023> <09:41:01>  >>>> DEBYE
 <Mar08-2023> <09:41:01>  >>>> ENGRAD
 <Mar08-2023> <09:42:15>  Geometry symmetry displacement    2 out of    2
  Coordinates in Geometry Cycle 23
    Atom         X           Y           Z   (Angstrom)
    1.Mo        0.614373   -3.073107   -1.888651
    2.O        -0.118455    0.092134   -5.303157
    3.Mo       -0.482959    3.130931    1.729030
    4.Mo        2.991324   -0.716836    1.927833
    5.Mo       -0.150259   -0.081169   -3.559497
    6.Mo        2.495322    2.544209    0.017692
    7.Mo       -0.109805   -0.072800    3.599969
    8.O         3.848160    3.642802    0.004915
    9.O        -0.054680    0.140826    5.337493
   10.Mo        0.354698   -3.059280    1.849168
   11.Mo        3.015982   -0.570780   -1.918304
   12.Mo       -0.494937    3.143866   -1.708673
   13.O         0.481711   -0.647402   -1.281963
   14.O        -1.688937    0.007271    0.000765
   15.O         0.299697    1.543660    0.014583
   16.O         0.471208   -0.679873    1.270979
   17.O        -1.349343   -3.064336    1.346306
   18.O         0.068988    1.729150   -2.974448
   19.O        -1.818847   -0.193503    3.232795
   20.O         2.933252    1.354252   -1.382067
   21.O        -2.149285    2.141719   -1.547941
   22.O         3.240672   -0.855929   -0.017368
   23.O        -2.142728    2.146244    1.559194
   24.O         0.952431   -3.317097    0.000045
   25.O         0.099597    1.757499    2.973246
   26.O        -1.276728   -3.105617   -1.378763
   27.O         2.946453    1.321300    1.303742
   28.O        -1.848593   -0.262471   -3.178601
   29.O         2.025586   -0.167759   -3.421108
   30.O        -0.970359    4.408193   -2.800719
   31.O         1.327549    3.522252   -1.357839
   32.O         0.180297   -2.039958    3.479081
   33.O         2.459649   -2.423173   -2.049399
   34.O        -0.907063    3.978102    0.003053
   35.O         2.446676   -2.459349    2.056671
   36.P        -0.151938    0.014251   -0.000405
   37.O         0.617726   -4.655356    2.517510
   38.O         2.055515   -0.104956    3.390578
   39.O         0.168732   -2.095078   -3.450680
   40.O         1.343952    3.543299    1.336344
   41.O         0.831491   -4.675106   -2.532486
   42.O         4.650871   -0.664122   -2.511129
   43.O        -0.955175    4.409743    2.804983
   44.O         4.643912   -0.760279    2.493176
   45.H        -2.057098    1.267616    1.062218
   46.H        -2.062280    1.262441   -1.052781
   47.H        -1.406497   -3.002535   -0.391746
 <Mar08-2023> <09:42:15>  >>>> CORORT
 <Mar08-2023> <09:42:16>  >>>> CLSMAT
 <Mar08-2023> <09:42:16>  >>>> ORTHON
 <Mar08-2023> <09:42:16>  >>>> GENPT
 <Mar08-2023> <09:42:16>  Block Length= 128
 <Mar08-2023> <09:42:16>  >>>> PTBAS
 <Mar08-2023> <09:42:29>  combining surface points...
 <Mar08-2023> <09:42:29>  combining surface points...
 <Mar08-2023> <09:42:29>  combining surface points...
 <Mar08-2023> <09:42:29>  >>>> CYCLE
 <Mar08-2023> <09:42:40>              |Error|         MaxErr       Wt(A-DIIS)
 <Mar08-2023> <09:42:40>      1      0.15677305      0.01247757
 <Mar08-2023> <09:42:49>      2      0.70705351      0.06059187    100.0
 <Mar08-2023> <09:42:58>      3      0.18686746      0.01256453    100.0
 <Mar08-2023> <09:43:07>      4      0.14209098      0.01394204     13.1
 <Mar08-2023> <09:43:15>      5      0.34600281      0.04055208    100.0
 <Mar08-2023> <09:43:23>      6      0.06937748      0.01009445      9.2
 <Mar08-2023> <09:43:32>      7      0.07480553      0.01097061      9.2
 <Mar08-2023> <09:43:40>      8      0.02947928      0.00329437      2.3
 <Mar08-2023> <09:43:48>      9      0.01685255      0.00188036      0.9
 <Mar08-2023> <09:43:57>     10      0.00886879      0.00114091      0.1
 <Mar08-2023> <09:44:05>     11      0.00297498      0.00041760      0.0
 <Mar08-2023> <09:44:13>     12      0.00123760      0.00011411      0.0
 <Mar08-2023> <09:44:21>     13      0.00172796      0.00020010      0.0
 <Mar08-2023> <09:44:30>     14      0.00117874      0.00015864      0.0
 <Mar08-2023> <09:44:38>     15      0.00027146      0.00003896      0.0
 <Mar08-2023> <09:44:46>     16      0.00013916      0.00001556      0.0
 <Mar08-2023> <09:44:54>     17      0.00002533      0.00000275      0.0
 <Mar08-2023> <09:45:03>     18      0.00004856      0.00000587      0.0
 <Mar08-2023> <09:45:11>     19      0.00002032      0.00000233      0.0
 <Mar08-2023> <09:45:19>     20      0.00001644      0.00000158      0.0
 <Mar08-2023> <09:45:27>     21      0.00000857      0.00000123      0.0
 <Mar08-2023> <09:45:35>     22      0.00000246      0.00000025      0.0
 <Mar08-2023> <09:45:38>  SCF converged
 <Mar08-2023> <09:45:43>     23      0.00000125      0.00000013      0.0
 <Mar08-2023> <09:45:46>  >>>> TOTEN
 <Mar08-2023> <09:45:50>  >>>> POPAN
 <Mar08-2023> <09:45:50>  >>>> DEBYE
 <Mar08-2023> <09:45:50>  >>>> ENGRAD
 <Mar08-2023> <09:47:03>  Old frequency:     -8.66689, new:     30.41838
 <Mar08-2023> <09:47:03>  NOTE: Some frequencies have been re-calculated by numerical differentiation
 <Mar08-2023> <09:47:03>        Check the text output file for new values!
 <Mar08-2023> <09:47:03>  NORMAL TERMINATION
 <Mar08-2023> <09:47:04>  END
