
 *******************************************************************************
 *                                                                             *
 *  -------------------------------------                                      *
 *   Amsterdam Density Functional  (ADF)         2019                          *
 *  -------------------------------------                                      *
 *                                               r74351 2019-04-25             *
 *                                                                             *
 *                                                                             *
 *                            =====================                            *
 *                            |                   |                            *
 *                            |     D I R A C     |                            *
 *                            |                   |                            *
 *                            =====================                            *
 *                                                                             *
 *                                                                             *
 *   Online information and documentation:  https://www.scm.com/support/       *
 *   E-mail:  support@scm.com   info@scm.com                                   *
 *                                                                             *
 *   Scientific publications using ADF results must be properly referenced     *
 *   See the User Manuals (or the web site) for recommended citations          *
 *   The terms and conditions of the End User License Agreement apply to       *
 *   the use of ADF, https://www.scm.com/license-terms/                        *
 *                                                                             *
 **********************  x86_64_linux_intel / intelmpi  ************************
 
  
 DIRAC 2019  RunTime: Feb11-2023 05:01:02  Nodes: 1  Procs: 1

 Temporary files are created in /scratch/kid_0.1495724218

1
 PHOSPHORUS ATOM 1s CORE RELATIVISTIC, Point Nuc, A and c fro
 N J RN H ZN XION ANUC CLIGHT
 5000    7100.00000000197.36710137 15.00000000  0.00000000   30.973761  0.1370360E+03
  PH   PHI     EPS        DEL        DELRVR
  0.30  0.30     2500.00  0.00001000  0.00001000
 IDIRC  NC1  NDEBU NPRIN  IPUN IRCOR IWCOR
   1   300     0     0     0     0     1
   XALPHA      XLATTER      RNUC
  0.70000000  0.00000000  0.00000000 Point Charge
   XN   XL   XJ      XE          XZ      XDELL
  1.0  0.0  0.5    -600.000       2.000     0.00000
  2.0  0.0  0.5     -75.000       2.000     0.00000
  2.0  1.0  0.5     -70.000       2.000     0.00000
  2.0  1.0  1.5     -70.000       4.000     0.00000
  3.0  0.0  0.5     -25.000       2.000     0.00000
  3.0  1.0  0.5      -0.250       2.000     0.00000
  3.0  1.0  1.5      -0.250       1.000     0.00000
 ICORP=  0  NPCL=  0  DEMP=0.00  PEPS=0.000000
 R(1)=  0.1000000E-08 D=  0.1005080E+01 RNUC=  0.0000000E+00
 converged at cycle   47  DENSITY AVERAGING    0.3000
  MAXIMUM ERROR IN R.V(R) IS   0.93255186E-05
 Q,EY,EV,EZ,ESUM,ETOT,RHO  0.150000E+02 -0.290161E+02 -0.536820E+03 -0.814855E+03 -0.194417E+03 -0.340688E+03  0.340722E-13


 DIRAC CALCULATION
1                    PHOSPHORUS ATOM 1s CORE RELATIVISTIC, Point Nuc, A and c from libtc


 EXCHANGE COEFFICIENT=  0.7000000           TAIL CORRECTION=  0.           NUCLEAR RADIUS=  0.000E+00
0                       ORBITAL    N    L    J     ELECTRONS     EIGENVALUE                DELTA OF EIGENV.

                          1S1/2  1.0  0.0  0.5     2.000       -0.7640874E+02                 0.2597240E-06
                          2S1/2  2.0  0.0  0.5     2.000       -0.6353640E+01                 0.3482713E-07
                          2P1/2  2.0  1.0  0.5     2.000       -0.4588256E+01                 0.3010938E-07
                          2P3/2  2.0  1.0  1.5     4.000       -0.4554413E+01                 0.2993762E-07
                          3S1/2  3.0  0.0  0.5     2.000       -0.4844206E+00                 0.1693624E-07
                          3P1/2  3.0  1.0  0.5     2.000       -0.1770291E+00                 0.1234259E-07
                          3P3/2  3.0  1.0  1.5     1.000       -0.1750217E+00                 0.1224459E-07


                                        NUCLEAR CHARGE=   15.000000
                            INTEGRAL OF CHARGE DENSITY=   15.000000
                           SUM OF THE ORBITAL ENERGIES=   -194.4169
                                          TOTAL ENERGY=   -340.6884
                                        KINETIC ENERGY=    342.4034
                             NUCLEAR ATTRACTION ENERGY=   -814.8554
                             ELECTRON REPULSION ENERGY=    153.5256
                                       EXCHANGE ENERGY=    -21.7621

 *******************************************************************************

                             D I R A C   E X I T
 NORMAL TERMINATION



 =================
 Timing Statistics
 =================
  
 Total Used :                     CPU=        0.27      System=        0.01     Elapsed=        0.28

 Calls  Section                     ( Mean, Percentage )
 ---------------------------------------------------------------------------------------------------
     2  ><      ................      0.00    0.00             0.00    0.00             0.00    0.00
     1  EXIT PROCEDURE .........      0.27  100.00             0.01  100.00             0.28  100.00


 Currently Open Files (EXIT00)
 ====================

 Unit    Access Format  Status   Type       Ident (file)
 -------------------------------------------------------
   3      SEQ    FORM   TRANSP  NORMAL      LOGFILE
                                          ( logfile )
 
Create P   file=TZP-P.1s
XC
  GGA PBE
End
relativistic ZORA
Corepotentials t12.rel
End

 *******************************************************************************
 *                                                                             *
 *  -------------------------------------                                      *
 *   Amsterdam Density Functional  (ADF)         2019                          *
 *  -------------------------------------                                      *
 *                                               r74351 2019-04-25             *
 *                                                                             *
 *                                                                             *
 *                              =================                              *
 *                              |               |                              *
 *                              |     A D F     |                              *
 *                              |               |                              *
 *                              =================                              *
 *                                                                             *
 *                                                                             *
 *   Online information and documentation:  https://www.scm.com/support/       *
 *   E-mail:  support@scm.com   info@scm.com                                   *
 *                                                                             *
 *   Scientific publications using ADF results must be properly referenced     *
 *   See the User Manuals (or the web site) for recommended citations          *
 *   The terms and conditions of the End User License Agreement apply to       *
 *   the use of ADF, https://www.scm.com/license-terms/                        *
 *                                                                             *
 **********************  x86_64_linux_intel / intelmpi  ************************
 
  
 ADF 2019  RunTime: Feb11-2023 05:01:03  Nodes: 1  Procs: 1

 Temporary files are created in /scratch/kid_0.1968567362

 Phosphorus (TZP, 1s frozen)



 ===========================
 A T T A C H E D   F I L E S
 ===========================
  
 CREATE - Data File:    TZP-P.1s
                        Phosphorus (TZP, 1s frozen)
 Core Potentials:
         file : t12.rel



 ===============================
 M O D E L   P A R A M E T E R S
 ===============================
  
 DENSITY FUNCTIONAL POTENTIAL (scf)
    LDA:                               PW92                                    == Not Default ==
    Gradient Corrections:              PBEc PBEx                               == Not Default ==

 SPIN  (restricted / unrestr.)
    Molecule:                          Restricted                               

 OTHER ASPECTS
    Relativistic Corrections:          scalar (ZORA,MAPA)                      == Not Default ==

    Nuclear Charge Density Model:      Point Charge Nuclei                      
    Core Treatment:                    Frozen Orbital(s)                        

    Hyperfine or Zeeman Interaction:   ---                                      



 =====================================
 S Y M M E T R Y ,   E L E C T R O N S
 =====================================
  
 Symmetry: ATOM

 Irreducible Representations, including subspecies
 -------------------------------------------------
 S
 P:x  P:y  P:z
 D:z2  D:x2-y2  D:xy  D:xz  D:yz
 F:z3  F:z  F:xyz  F:z2x  F:z2y  F:x  F:y


 Configuration of Valence Electrons
 ==================================

          Occupation Numbers
          -------------------------------------------------
 S        2*2
 P        6 3
 D        0
 F        0
          -------------------------------------------------

 Total:   13

 Net Charge: 0 (Nuclei minus Electrons)

 Preset values for MO occupations will be applied through SCF cycle no. 1000000
 Thereafter, the program will assign electrons to MOs that are spatially
 similar to the occupied MOs in a "reference" cycle ("KeepOrbitals").
 The reference cycle is always the PREVIOUS cycle: it will evolve with
 the SCF procedure.



 ================================
 (Slater-type)  F U N C T I O N S  ***  (Basis and Fit)  ***
 ================================
  

 Atom Type    1  (P)
 ==============

 Valence Basis Sets:  12
 -----------------------
   1 S   12.550000
   2 S    5.600000
   2 S    4.050000
   2 P    7.450000
   2 P    4.100000
   3 S    1.300000
   3 S    1.850000
   3 S    2.650000
   3 P    0.850000
   3 P    1.300000
   3 P    2.050000
   3 D    1.900000

 Frozen Core Shells
 ------------------
    S:  1


 BAS: List of all Elementary Cartesian Basis Functions
 =====================================================

 The numbering in the list below (to the right of the function characteristics) is referred
 to in print-outs of MO eigenvectors and Mulliken populations in the BAS representation
 (as contrasted to the SFO representation).

 Notes:
 1. The functions are characterized by a polynomial prefactor (powers of x,y,z and r) and
    an exponential decay factor alpha.
 2. Since the basis sets are specific for an atom TYPE, the individual functions occur on
    all atoms of that type.
 3. The word 'Core' in the left margin signals that it is a Core Function (CF) : not a
    degree of freedom in the valence set, but only used to ensure orthogonalization of
    the other valence basis functions on the frozen Core Orbitals.


 (power of) X  Y  Z  R     Alpha  on Atom
            ==========     =====     ==========

 P                                    1
                                  ---------------------------------------------------------------------------
    Core    0  0  0  0    12.550      1
            0  0  0  1     5.600      2
            0  0  0  1     4.050      3
            1  0  0  0     7.450      4
            0  1  0  0     7.450      5
            0  0  1  0     7.450      6
            1  0  0  0     4.100      7
            0  1  0  0     4.100      8
            0  0  1  0     4.100      9
            0  0  0  2     1.300     10
            0  0  0  2     1.850     11
            0  0  0  2     2.650     12
            1  0  0  1     0.850     13
            0  1  0  1     0.850     14
            0  0  1  1     0.850     15
            1  0  0  1     1.300     16
            0  1  0  1     1.300     17
            0  0  1  1     1.300     18
            1  0  0  1     2.050     19
            0  1  0  1     2.050     20
            0  0  1  1     2.050     21
            2  0  0  0     1.900     22
            1  1  0  0     1.900     23
            1  0  1  0     1.900     24
            0  2  0  0     1.900     25
            0  1  1  0     1.900     26
            0  0  2  0     1.900     27

 Total number of charge fitting functions (nprimf)       106
 Total number of Cartesian basis functions (naos)         27
 Total number of Cartesian core functions  (ncos)          1



 BAS: List of all Elementary Cartesian Basis Functions
 =====================================================

 The numbering in the list below (to the right of the function characteristics) is referred
 to in print-outs of MO eigenvectors and Mulliken populations in the BAS representation
 (as contrasted to the SFO representation).

 Notes:
 1. The functions are characterized by a polynomial prefactor (powers of x,y,z and r) and
    an exponential decay factor alpha.
 2. Since the basis sets are specific for an atom TYPE, the individual functions occur on
    all atoms of that type.
 3. The word 'Core' in the left margin signals that it is a Core Function (CF) : not a
    degree of freedom in the valence set, but only used to ensure orthogonalization of
    the other valence basis functions on the frozen Core Orbitals.


 (power of) X  Y  Z  R     Alpha  on Atom
            ==========     =====     ==========

 P                                    1
                                  ---------------------------------------------------------------------------
    Core    0  0  0  0    12.550      1
            0  0  0  1     5.600      2
            0  0  0  1     4.050      3
            1  0  0  0     7.450      4
            0  1  0  0     7.450      5
            0  0  1  0     7.450      6
            1  0  0  0     4.100      7
            0  1  0  0     4.100      8
            0  0  1  0     4.100      9
            0  0  0  2     1.300     10
            0  0  0  2     1.850     11
            0  0  0  2     2.650     12
            1  0  0  1     0.850     13
            0  1  0  1     0.850     14
            0  0  1  1     0.850     15
            1  0  0  1     1.300     16
            0  1  0  1     1.300     17
            0  0  1  1     1.300     18
            1  0  0  1     2.050     19
            0  1  0  1     2.050     20
            0  0  1  1     2.050     21
            2  0  0  0     1.900     22
            1  1  0  0     1.900     23
            1  0  1  0     1.900     24
            0  2  0  0     1.900     25
            0  1  1  0     1.900     26
            0  0  2  0     1.900     27
1
 ***************************************************************************************************



                                              ***********************
                                              *  T E C H N I C A L  *
                                              ***********************
  



 =============================================================
 P A R A L L E L I Z A T I O N  and  V E C T O R I Z A T I O N
 =============================================================
  
 Nr of parallel processes:                                1
 Maximum vector length in NumInt loops:                 128



 =====================
 S C F   U P D A T E S
 =====================
  
 Max. nr. of cycles:                               300
 Convergence criterion:                              0.0000000100
   secondary criterion:                              0.0000000100

 Mix parameter (when DIIS does not apply):           0.2000000000
 Special mix parameter for the first cycle:          1.0000000000
 Mixed ADIIS+SDIIS will be used                  
    Max number of expansion vectors:                10
    Pure ADIIS when Max([F,P]) is above              0.1000000000
    Pure SDIIS when Max([F,P]) is below              0.0010000000
 Automatic ElectronSmearing (in case of problematic SCF convergence) disabled



 =================
 P R E C I S I O N  ***  (General: NumInt, NeglectFunctionTails, ...)  ***
 =================
  

 NumInt:           Target precision:                12.0000000000
 -------           Initial precision:               10.0000000000
                   Min. precision (optimization):   10.0000000000

 Neglect Functions:          Basis functions:        0.1000000000E-13
 ------------------          Fit functions:          0.1000000000E-13



 ===========================
 L I N E A R   S C A L I N G
 ===========================
  

 Cut-off radii density fit:                        0.1000000000E-97
 Overlap cut-off criterion AO matrix elements:     0.1000000000E-97
 Cut-offs for Coulomb potential and fitted density:0.1000000000E-97
 Cut-off criterion for Coulomb multipole terms:    0.1000000000E-97
 Progressive Convergence parameter:                 0.000000000    
1
 ***************************************************************************************************



                                            ***************************
                                            *  C O M P U T A T I O N  *
                                            ***************************
  

 Number of elements of the density matrix on this node (used, total):       378       378



 ===========================================
 Numerical Integration : Fuzzy Cells (Becke)
 ===========================================
  
 Becke grid quality: VERYGOOD       
  
 Lebedev angular grid order:             min:  13 max:  41
 Nr. of radial points:                   min:  76 max:  76

 Total nr. of points:         76
 Nr. of blocks:                1
 Block length:                76
 Nr. of dummy points:          0


 Test of Precision of the Numerical Integration Grid
 ===================================================

 Integral of the Total Core Density:                   1.99999999908170
 Relative Error:                                      -4.592E-10



 ========================
 Density Fitting (zlmFit)
 ========================
  
 ZlmFit Fit Quality: VERYGOOD       
  
 Max L-expansion:                        min:   0 max:   0
 Nr. of radial interpolation points:     min: 190 max: 190



 =====
 S C F  ***  ScaSCF  ***
 =====
  

 CYCLE    1
 SCF Error: norm([F,P])=      0.000000000000, max([F,P])=      0.000000000000
 orbitals (Q,E):
 ---------------
 S :1...5            ( 2.00   -23.0992)  ( 2.00    -9.8031)  ( 0.00    -5.2886)  ( 0.00    -3.1440)
                     ( 0.00    -1.2993)
 P :1...5            ( 6.00   -22.3278)  ( 3.00    -9.2322)  ( 0.00    -4.8937)  ( 0.00    -3.0142)
                     ( 0.00    -1.9614)
 D :1...1            ( 0.00    -6.4318)

 CYCLE    2
  SDIIS (wt  0.000):  1.0000  0.0000
 A-DIIS (wt  1.000):  0.1145  0.8855
  DIIS coefficients:  0.1145  0.8855
 SCF Error: norm([F,P])=     18.574199763001, max([F,P])=      5.729460424591
 orbitals (Q,E):
 ---------------
 S :1...3            ( 2.00    -4.5689)  ( 2.00    -0.5693)  ( 0.00    -0.0589)
 P :1...3            ( 6.00    -2.5820)  ( 3.00    -0.3376)  ( 0.00    -0.0879)
 D :1...1            ( 0.00     0.3219)

 CYCLE    3
  SDIIS (wt  0.000):  0.2387  0.7613
 A-DIIS (wt  1.000):  0.0000  1.0000
  DIIS coefficients:  0.0000  1.0000
 SCF Error: norm([F,P])=      7.892246338364, max([F,P])=      2.592954182835
 orbitals (Q,E):
 ---------------
 S :1...3            ( 2.00    -8.2146)  ( 2.00    -0.9843)  ( 0.00    -0.0433)
 P :1...3            ( 6.00    -6.5635)  ( 3.00    -0.6019)  ( 0.00    -0.0049)
 D :1...1            ( 0.00    -0.0107)

 CYCLE    4
  SDIIS (wt  0.000): -0.0871  0.2952  0.7919
 A-DIIS (wt  1.000):  0.0000  0.1757  0.8243
  DIIS coefficients:  0.0000  0.1757  0.8243
 SCF Error: norm([F,P])=      4.387176641077, max([F,P])=      1.761626650861
 orbitals (Q,E):
 ---------------
 S :1...3            ( 2.00    -5.8126)  ( 2.00    -0.3504)  ( 0.00     0.1791)
 P :1...3            ( 6.00    -3.9508)  ( 3.00    -0.0835)  ( 0.00     0.1310)
 D :1...1            ( 0.00     0.5508)

 CYCLE    5
  SDIIS (wt  0.000): -0.0109 -0.0602  0.1941  0.8770
 A-DIIS (wt  1.000):  0.0000  0.0000  0.0000  1.0000
  DIIS coefficients:  0.0000  0.0000  0.0000  1.0000
 SCF Error: norm([F,P])=      1.324345584458, max([F,P])=      0.466956153840
 orbitals (Q,E):
 ---------------
 S :1...3            ( 2.00    -6.8907)  ( 2.00    -0.7073)  ( 0.00     0.0342)
 P :1...3            ( 6.00    -5.0922)  ( 3.00    -0.3650)  ( 0.00     0.0330)
 D :1...1            ( 0.00     0.1959)

 CYCLE    6
  SDIIS (wt  0.000):  0.0000 -0.0289 -0.0346  0.4584  0.6050
 A-DIIS (wt  1.000):  0.0000  0.0000  0.0000  0.3111  0.6889
  DIIS coefficients:  0.0000  0.0000  0.0000  0.3111  0.6889
 SCF Error: norm([F,P])=      0.894656609953, max([F,P])=      0.328552344502
 orbitals (Q,E):
 ---------------
 S :1...3            ( 2.00    -6.3109)  ( 2.00    -0.4896)  ( 0.00     0.1210)
 P :1...3            ( 6.00    -4.4823)  ( 3.00    -0.1842)  ( 0.00     0.0870)
 D :1...1            ( 0.00     0.4072)

 CYCLE    7
  SDIIS (wt  0.437):  0.0003 -0.0004 -0.0106 -0.0415  0.1385  0.9137
 A-DIIS (wt  0.563):  0.0000  0.0000  0.0000  0.0000  0.0000  1.0000
  DIIS coefficients:  0.0001 -0.0002 -0.0046 -0.0181  0.0605  0.9623
 SCF Error: norm([F,P])=      0.152753231532, max([F,P])=      0.056768903175
 orbitals (Q,E):
 ---------------
 S :1...3            ( 2.00    -6.4268)  ( 2.00    -0.5264)  ( 0.00     0.1084)
 P :1...3            ( 6.00    -4.6039)  ( 3.00    -0.2126)  ( 0.00     0.0772)
 D :1...1            ( 0.00     0.3702)

 CYCLE    8
  SDIIS (wt  0.777): -0.0000 -0.0007  0.0025  0.0136 -0.0400  0.1180  0.9067
 A-DIIS (wt  0.223):  0.0000  0.0000  0.0000  0.0000  0.0000  0.0410  0.9590
  DIIS coefficients: -0.0000 -0.0005  0.0019  0.0105 -0.0311  0.1008  0.9184
 SCF Error: norm([F,P])=      0.062117061218, max([F,P])=      0.023065151090
 orbitals (Q,E):
 ---------------
 S :1...3            ( 2.00    -6.3871)  ( 2.00    -0.5116)  ( 0.00     0.1144)
 P :1...3            ( 6.00    -4.5623)  ( 3.00    -0.2008)  ( 0.00     0.0809)
 D :1...1            ( 0.00     0.3849)

 CYCLE    9
  SDIIS (wt  0.976):  0.0000  0.0000 -0.0001 -0.0000 -0.0006  0.0067  0.1535  0.8406
 A-DIIS (wt  0.024):  0.0000  0.0000  0.0000  0.0000  0.0000  0.0000  0.0000  1.0000
  DIIS coefficients:  0.0000  0.0000 -0.0001 -0.0000 -0.0006  0.0065  0.1498  0.8445
 SCF Error: norm([F,P])=      0.008957667695, max([F,P])=      0.003406470825
 orbitals (Q,E):
 ---------------
 S :1...3            ( 2.00    -6.3923)  ( 2.00    -0.5136)  ( 0.00     0.1136)
 P :1...3            ( 6.00    -4.5677)  ( 3.00    -0.2024)  ( 0.00     0.0804)
 D :1...1            ( 0.00     0.3830)

 CYCLE   10
  SDIIS (wt  1.000): -0.0000  0.0000 -0.0000 -0.0000  0.0000  0.0002  0.0031  0.0372  0.9595
  DIIS coefficients: -0.0000  0.0000 -0.0000 -0.0000  0.0000  0.0002  0.0031  0.0372  0.9595
 SCF Error: norm([F,P])=      0.000163653333, max([F,P])=      0.000063717608
 orbitals (Q,E):
 ---------------
 S :1...3            ( 2.00    -6.3922)  ( 2.00    -0.5136)  ( 0.00     0.1136)
 P :1...3            ( 6.00    -4.5676)  ( 3.00    -0.2024)  ( 0.00     0.0804)
 D :1...1            ( 0.00     0.3830)

 CYCLE   11
  SDIIS (wt  1.000):  0.0000  0.0000 -0.0000 -0.0002 -0.0016 -0.0226  1.0244
  DIIS coefficients:  0.0000  0.0000 -0.0000 -0.0002 -0.0016 -0.0226  1.0244
 SCF Error: norm([F,P])=      0.000000175567, max([F,P])=      0.000000090743
 orbitals (Q,E):
 ---------------
 S :1...3            ( 2.00    -6.3922)  ( 2.00    -0.5136)  ( 0.00     0.1136)
 P :1...3            ( 6.00    -4.5676)  ( 3.00    -0.2024)  ( 0.00     0.0804)
 D :1...1            ( 0.00     0.3830)

 CYCLE   12
  SDIIS (wt  1.000): -0.0000 -0.0000 -0.0005 -0.0247  1.0252
  DIIS coefficients: -0.0000 -0.0000 -0.0005 -0.0247  1.0252
 SCF Error: norm([F,P])=      0.000000002285, max([F,P])=      0.000000001028
 orbitals (Q,E):
 ---------------
 S :1...3            ( 2.00    -6.3922)  ( 2.00    -0.5136)  ( 0.00     0.1136)
 P :1...3            ( 6.00    -4.5676)  ( 3.00    -0.2024)  ( 0.00     0.0804)
 D :1...1            ( 0.00     0.3830)

 SCF CONVERGED

 CYCLE   13
1
 ***************************************************************************************************



                                                *******************
                                                *  R E S U L T S  *
                                                *******************
  
 *** Using FIT density in Focky
  SDIIS (wt  1.000):  0.0000  0.0017  0.0326  0.9657
  DIIS coefficients:  0.0000  0.0017  0.0326  0.9657
 SCF Error: norm([F,P])=      0.000000000342, max([F,P])=      0.000000000172

 Scaled ZORA Orbital Energies, per Irrep and Spin:
 =================================================
                        Occup              E (au)              E (eV)       Diff (eV) with prev. cycle
                        -----      --------------------        ------       --------------------------
 S
               1        2.000     -0.63922369009056E+01      -173.942               8.75E-09
               2        2.000     -0.51357095789531E+00       -13.975               6.90E-09
               3        0.000      0.11360419341918E+00         3.091
               4        0.000      0.13218598554508E+01        35.970
               5        0.000      0.10430275582036E+02       283.822
 P
               1        6.000     -0.45676340295409E+01      -124.292               8.74E-09
               2        3.000     -0.20235270966723E+00        -5.506               5.88E-09
               3        0.000      0.80400995303665E-01         2.188
               4        0.000      0.71612464912880E+00        19.487
               5        0.000      0.95392466931961E+01       259.576
 D
               1        0.000      0.38299165710671E+00        10.422


 Partially Occupied:
               2 P                -0.20235270966723E+00
  
 HOMO :        2 S                -0.51357095789531E+00
 LUMO :        3 P                 0.80400995303665E-01
  


 Orbital Energies, all Irreps
 ========================================

 Irrep        no.  (spin)   Occup              E (au)                E (eV)
 ---------------------------------------------------------------------------
 S             1             2.00       -0.63922369009056E+01      -173.9416
 P             1             6.00       -0.45676340295409E+01      -124.2916
 S             2             2.00       -0.51357095789531E+00       -13.9750
 P             2             3.00       -0.20235270966723E+00        -5.5063
 P             3             0.00        0.80400995303665E-01         2.1878
 S             3             0.00        0.11360419341918E+00         3.0913
 D             1             0.00        0.38299165710671E+00        10.4217
 P             4             0.00        0.71612464912880E+00        19.4867
 S             4             0.00        0.13218598554508E+01        35.9696
 P             5             0.00        0.95392466931961E+01       259.5761
 S             5             0.00        0.10430275582036E+02       283.8222


 Scaled ZORA Orbital Energies of the Core Orbitals:
 ==================================================

 (Note that the atoms are grouped by atomtype, see the labels, and may hence NOT be in input order)

 AtomType  Orbital  Atom                   E (au)                        E (eV)
 --------  -------  ----           --------------------        ----------------
 P           1S        1          -0.76588588395026E+02               -2084.082



 =======================================
 M U L L I K E N   P O P U L A T I O N S
 =======================================
  
 The survey below gives for each atom:
 a) the total charge (Z minus electrons)
 b) the net spin polarization (nr of electrons spin-A minus spin-B)
 c) for each spin the atomic electron valence density (integrated) per L-value.

 Atom              Charge    Spin density          S         P         D         F
 ----              ------    ------------       ------    ------    ------    ------
 1 P              -0.0000                       4.0000    9.0000    0.0000    0.0000

 Populations of individual BAS functions
 ----------------------------------------
 1 P           -0.0481  1.4990  0.5077  0.7973  0.7973  0.7973  1.2052  1.2052  1.2052  0.3372
                1.0986  0.6057  0.1369  0.1369  0.1369  0.4144  0.4144  0.4144  0.4462  0.4462
                0.4462  0.0000  0.0000  0.0000  0.0000  0.0000  0.0000

 Gross Charges per Atom (Z minus electrons)
 ==========================================
            -0.0000
 Net Total: -0.00000000



 =======================================================================
 Electrostatic potential at the Nuclei due to electrons and other nuclei
 =======================================================================
  
         Atom                  Potential
         ----                  ---------
     1)   P                  54.30955117
 
 
 ========================
 No memory problems found
 ========================
 
 Maximum number of active allocate calls:         389
 
 *******************************************************************************

                             A D F   E X I T
 NORMAL TERMINATION



 =================
 Timing Statistics
 =================
  
 Total Used :                     CPU=        0.58      System=        0.04     Elapsed=        0.66

 Calls  Section                     ( Mean, Percentage )
 ---------------------------------------------------------------------------------------------------
     3  ><      ................      0.00    0.69             0.00    0.00             0.00    0.70
     1  INIT    ................      0.07   12.41             0.00    0.00             0.08   12.44
     1  GEOMET  ................      0.01    1.38             0.01   30.00             0.02    3.79
     1  INPUTA  ................      0.00    0.69             0.00    0.00             0.00    0.55
     1  MAINSY  ................      0.01    1.38             0.00   10.00             0.02    2.28
     1  SYMFIT  ................      0.00    0.00             0.00    0.00             0.00    0.25
     1  CORORT  ................      0.00    0.00             0.00    0.00             0.00    0.23
     1  SYMORB  ................      0.00    0.00             0.00   10.00             0.00    0.14
     1  CLSMAT  ................      0.00    0.69             0.00    0.00             0.01    0.88
     1  ORTHON  ................      0.00    0.69             0.00    0.00             0.01    0.87
     1  GENPT   ................      0.02    3.45             0.00    0.00             0.02    2.93
     1  PTBAS   ................      0.00    0.69             0.00    0.00             0.01    0.81
    13  FOCKY   ................      0.03   66.21             0.00   20.00             0.03   60.26
    13  FOCKTR  ................      0.00    1.38             0.00    0.00             0.00    1.16
    13  SDIIS   ................      0.00    3.45             0.00   20.00             0.00    5.74
     1  COREPS  ................      0.02    3.45             0.00   10.00             0.02    3.72
     1  POPAN   ................      0.00    0.69             0.00    0.00             0.01    0.78
     1  DEBYE   ................      0.00    0.00             0.00    0.00             0.00    0.30
     1  EXIT PROCEDURE .........      0.02    2.76             0.00    0.00             0.01    2.16


 Currently Open Files (EXIT00)
 ====================

 Unit    Access Format  Status   Type       Ident (file)
 -------------------------------------------------------
   3      SEQ    FORM   TRANSP  NORMAL      LOGFILE
                                          ( logfile )

 ***************************************************************************************************
 (LOGFILE)
  Coordinates
    Atom         X           Y           Z   (Angstrom)
    1.P         0.000000    0.000000    0.000000

 *******************************************************************************
 *                                                                             *
 *  -------------------------------------                                      *
 *   Amsterdam Density Functional  (ADF)         2019                          *
 *  -------------------------------------                                      *
 *                                               r74351 2019-04-25             *
 *                                                                             *
 *                                                                             *
 *                            =====================                            *
 *                            |                   |                            *
 *                            |     D I R A C     |                            *
 *                            |                   |                            *
 *                            =====================                            *
 *                                                                             *
 *                                                                             *
 *   Online information and documentation:  https://www.scm.com/support/       *
 *   E-mail:  support@scm.com   info@scm.com                                   *
 *                                                                             *
 *   Scientific publications using ADF results must be properly referenced     *
 *   See the User Manuals (or the web site) for recommended citations          *
 *   The terms and conditions of the End User License Agreement apply to       *
 *   the use of ADF, https://www.scm.com/license-terms/                        *
 *                                                                             *
 **********************  x86_64_linux_intel / intelmpi  ************************
 
  
 DIRAC 2019  RunTime: Feb11-2023 05:01:03  Nodes: 1  Procs: 1

 Temporary files are created in /scratch/kid_0.256557091

1
 MOLYBDENUM ATOM 3d CORE RELATIVISTIC, Point Nuc, A and c fro
 N J RN H ZN XION ANUC CLIGHT
 5000   15100.00000000197.36710137 42.00000000  0.00000000   97.905406  0.1370360E+03
  PH   PHI     EPS        DEL        DELRVR
  0.30  0.30     2500.00  0.00001000  0.00001000
 IDIRC  NC1  NDEBU NPRIN  IPUN IRCOR IWCOR
   1   300     0     0     0     0     9
   XALPHA      XLATTER      RNUC
  0.70000000  0.00000000  0.00000000 Point Charge
   XN   XL   XJ      XE          XZ      XDELL
  1.0  0.0  0.5   -1500.000       2.000     0.00000
  2.0  0.0  0.5    -325.000       2.000     0.00000
  2.0  1.0  0.5    -325.000       2.000     0.00000
  2.0  1.0  1.5    -325.000       4.000     0.00000
  3.0  0.0  0.5     -70.000       2.000     0.00000
  3.0  1.0  0.5     -70.000       2.000     0.00000
  3.0  1.0  1.5     -70.000       4.000     0.00000
  3.0  2.0  1.5     -60.000       4.000     0.00000
  3.0  2.0  2.5     -60.000       6.000     0.00000
  4.0  0.0  0.5     -10.000       2.000     0.00000
  4.0  1.0  0.5     -10.000       2.000     0.00000
  4.0  1.0  1.5     -10.000       4.000     0.00000
  4.0  2.0  1.5      -1.000       4.000     0.00000
  4.0  2.0  2.5      -1.000       1.000     0.00000
  5.0  0.0  0.5      -0.500       1.000     0.00000
 ICORP=  0  NPCL=  0  DEMP=0.00  PEPS=0.000000
 R(1)=  0.1000000E-08 D=  0.1005080E+01 RNUC=  0.0000000E+00
 converged at cycle   41  DENSITY AVERAGING    0.2400
  MAXIMUM ERROR IN R.V(R) IS   0.93203452E-05
 Q,EY,EV,EZ,ESUM,ETOT,RHO  0.420000E+02 -0.161898E+03 -0.662509E+04 -0.978397E+04 -0.242700E+04 -0.404691E+04  0.342495E-11


 DIRAC CALCULATION
1                    MOLYBDENUM ATOM 3d CORE RELATIVISTIC, Point Nuc, A and c from libtc


 EXCHANGE COEFFICIENT=  0.7000000           TAIL CORRECTION=  0.           NUCLEAR RADIUS=  0.000E+00
0                       ORBITAL    N    L    J     ELECTRONS     EIGENVALUE                DELTA OF EIGENV.

                          1S1/2  1.0  0.0  0.5     2.000       -0.7276812E+03                 0.2822496E-04
                          2S1/2  2.0  0.0  0.5     2.000       -0.1028194E+03                 0.1725465E-04
                          2P1/2  2.0  1.0  0.5     2.000       -0.9468016E+02                 0.1864325E-04
                          2P3/2  2.0  1.0  1.5     4.000       -0.9076266E+02                 0.1832345E-04
                          3S1/2  3.0  0.0  0.5     2.000       -0.1747094E+02                 0.5979346E-05
                          3P1/2  3.0  1.0  0.5     2.000       -0.1436574E+02                 0.6275079E-05
                          3P3/2  3.0  1.0  1.5     4.000       -0.1371946E+02                 0.5984426E-05
                          3D3/2  3.0  2.0  1.5     4.000       -0.8203697E+01                 0.6709395E-05
                          3D5/2  3.0  2.0  2.5     6.000       -0.8081013E+01                 0.6610438E-05
                          4S1/2  4.0  0.0  0.5     2.000       -0.2338238E+01                 0.2446887E-06
                          4P1/2  4.0  1.0  0.5     2.000       -0.1452045E+01                 0.2971982E-06
                          4P3/2  4.0  1.0  1.5     4.000       -0.1358936E+01                 0.3186552E-06
                          4D3/2  4.0  2.0  1.5     4.000       -0.1184046E+00                 0.3378248E-06
                          4D5/2  4.0  2.0  2.5     1.000       -0.1108976E+00                 0.3342679E-06
                          5S1/2  5.0  0.0  0.5     1.000       -0.1320069E+00                 0.9757102E-07


                                        NUCLEAR CHARGE=   42.000000
                            INTEGRAL OF CHARGE DENSITY=   42.000000
                           SUM OF THE ORBITAL ENERGIES=  -2426.9970
                                          TOTAL ENERGY=  -4046.9128
                                        KINETIC ENERGY=   4198.0886
                             NUCLEAR ATTRACTION ENERGY=  -9783.9685
                             ELECTRON REPULSION ENERGY=   1660.3903
                                       EXCHANGE ENERGY=   -121.4232

 *******************************************************************************

                             D I R A C   E X I T
 NORMAL TERMINATION



 =================
 Timing Statistics
 =================
  
 Total Used :                     CPU=        0.46      System=        0.00     Elapsed=        0.47

 Calls  Section                     ( Mean, Percentage )
 ---------------------------------------------------------------------------------------------------
     2  ><      ................      0.00    0.00             0.00    0.00             0.00    0.00
     1  EXIT PROCEDURE .........      0.46  100.00             0.00  100.00             0.47  100.00


 Currently Open Files (EXIT00)
 ====================

 Unit    Access Format  Status   Type       Ident (file)
 -------------------------------------------------------
   3      SEQ    FORM   TRANSP  NORMAL      LOGFILE
                                          ( logfile )
 
Create Mo   file=TZP-Mo.3d
XC
  GGA PBE
End
relativistic ZORA
Corepotentials t12.rel
End

 *******************************************************************************
 *                                                                             *
 *  -------------------------------------                                      *
 *   Amsterdam Density Functional  (ADF)         2019                          *
 *  -------------------------------------                                      *
 *                                               r74351 2019-04-25             *
 *                                                                             *
 *                                                                             *
 *                              =================                              *
 *                              |               |                              *
 *                              |     A D F     |                              *
 *                              |               |                              *
 *                              =================                              *
 *                                                                             *
 *                                                                             *
 *   Online information and documentation:  https://www.scm.com/support/       *
 *   E-mail:  support@scm.com   info@scm.com                                   *
 *                                                                             *
 *   Scientific publications using ADF results must be properly referenced     *
 *   See the User Manuals (or the web site) for recommended citations          *
 *   The terms and conditions of the End User License Agreement apply to       *
 *   the use of ADF, https://www.scm.com/license-terms/                        *
 *                                                                             *
 **********************  x86_64_linux_intel / intelmpi  ************************
 
  
 ADF 2019  RunTime: Feb11-2023 05:01:04  Nodes: 1  Procs: 1

 Temporary files are created in /scratch/kid_0.1389948569

 Molybdenum (TZP, 3d frozen)



 ===========================
 A T T A C H E D   F I L E S
 ===========================
  
 CREATE - Data File:    TZP-Mo.3d
                        Molybdenum (TZP, 3d frozen)
 Core Potentials:
         file : t12.rel



 ===============================
 M O D E L   P A R A M E T E R S
 ===============================
  
 DENSITY FUNCTIONAL POTENTIAL (scf)
    LDA:                               PW92                                    == Not Default ==
    Gradient Corrections:              PBEc PBEx                               == Not Default ==

 SPIN  (restricted / unrestr.)
    Molecule:                          Restricted                               

 OTHER ASPECTS
    Relativistic Corrections:          scalar (ZORA,MAPA)                      == Not Default ==

    Nuclear Charge Density Model:      Point Charge Nuclei                      
    Core Treatment:                    Frozen Orbital(s)                        

    Hyperfine or Zeeman Interaction:   ---                                      



 =====================================
 S Y M M E T R Y ,   E L E C T R O N S
 =====================================
  
 Symmetry: ATOM

 Irreducible Representations, including subspecies
 -------------------------------------------------
 S
 P:x  P:y  P:z
 D:z2  D:x2-y2  D:xy  D:xz  D:yz
 F:z3  F:z  F:xyz  F:z2x  F:z2y  F:x  F:y


 Configuration of Valence Electrons
 ==================================

          Occupation Numbers
          -------------------------------------------------
 S        2 1
 P        6
 D        5
 F        0
          -------------------------------------------------

 Total:   14

 Net Charge: 0 (Nuclei minus Electrons)

 Preset values for MO occupations will be applied through SCF cycle no. 1000000
 Thereafter, the program will assign electrons to MOs that are spatially
 similar to the occupied MOs in a "reference" cycle ("KeepOrbitals").
 The reference cycle is always the PREVIOUS cycle: it will evolve with
 the SCF procedure.



 ================================
 (Slater-type)  F U N C T I O N S  ***  (Basis and Fit)  ***
 ================================
  

 Atom Type    1  (Mo)
 ==============

 Valence Basis Sets:  18
 -----------------------
   1 S   30.500000
   2 S   17.750000
   3 S    8.350000
   2 P   18.600000
   3 P    8.700000
   3 D   10.050000
   4 S    5.100000
   4 S    3.300000
   5 S    2.150000
   5 S    1.350000
   5 S    0.870000
   4 P    4.950000
   4 P    3.300000
   4 P    2.300000
   4 D    3.500000
   4 D    1.850000
   4 D    0.970000
   5 P    1.350000

 Frozen Core Shells
 ------------------
    S:  3
    P:  2
    D:  1


 BAS: List of all Elementary Cartesian Basis Functions
 =====================================================

 The numbering in the list below (to the right of the function characteristics) is referred
 to in print-outs of MO eigenvectors and Mulliken populations in the BAS representation
 (as contrasted to the SFO representation).

 Notes:
 1. The functions are characterized by a polynomial prefactor (powers of x,y,z and r) and
    an exponential decay factor alpha.
 2. Since the basis sets are specific for an atom TYPE, the individual functions occur on
    all atoms of that type.
 3. The word 'Core' in the left margin signals that it is a Core Function (CF) : not a
    degree of freedom in the valence set, but only used to ensure orthogonalization of
    the other valence basis functions on the frozen Core Orbitals.


 (power of) X  Y  Z  R     Alpha  on Atom
            ==========     =====     ==========

 Mo                                   1
                                  ---------------------------------------------------------------------------
    Core    0  0  0  0    30.500      1
    Core    0  0  0  1    17.750      2
    Core    0  0  0  2     8.350      3
    Core    1  0  0  0    18.600      4
    Core    0  1  0  0    18.600      5
    Core    0  0  1  0    18.600      6
    Core    1  0  0  1     8.700      7
    Core    0  1  0  1     8.700      8
    Core    0  0  1  1     8.700      9
    Core    2  0  0  0    10.050     10
    Core    1  1  0  0    10.050     11
    Core    1  0  1  0    10.050     12
    Core    0  2  0  0    10.050     13
    Core    0  1  1  0    10.050     14
    Core    0  0  2  0    10.050     15
            0  0  0  3     5.100     16
            0  0  0  3     3.300     17
            0  0  0  4     2.150     18
            0  0  0  4     1.350     19
            0  0  0  4     0.870     20
            1  0  0  2     4.950     21
            0  1  0  2     4.950     22
            0  0  1  2     4.950     23
            1  0  0  2     3.300     24
            0  1  0  2     3.300     25
            0  0  1  2     3.300     26
            1  0  0  2     2.300     27
            0  1  0  2     2.300     28
            0  0  1  2     2.300     29
            2  0  0  1     3.500     30
            1  1  0  1     3.500     31
            1  0  1  1     3.500     32
            0  2  0  1     3.500     33
            0  1  1  1     3.500     34
            0  0  2  1     3.500     35
            2  0  0  1     1.850     36
            1  1  0  1     1.850     37
            1  0  1  1     1.850     38
            0  2  0  1     1.850     39
            0  1  1  1     1.850     40
            0  0  2  1     1.850     41
            2  0  0  1     0.970     42
            1  1  0  1     0.970     43
            1  0  1  1     0.970     44
            0  2  0  1     0.970     45
            0  1  1  1     0.970     46
            0  0  2  1     0.970     47
            1  0  0  3     1.350     48
            0  1  0  3     1.350     49
            0  0  1  3     1.350     50

 Total number of charge fitting functions (nprimf)       230
 Total number of Cartesian basis functions (naos)         50
 Total number of Cartesian core functions  (ncos)         15



 BAS: List of all Elementary Cartesian Basis Functions
 =====================================================

 The numbering in the list below (to the right of the function characteristics) is referred
 to in print-outs of MO eigenvectors and Mulliken populations in the BAS representation
 (as contrasted to the SFO representation).

 Notes:
 1. The functions are characterized by a polynomial prefactor (powers of x,y,z and r) and
    an exponential decay factor alpha.
 2. Since the basis sets are specific for an atom TYPE, the individual functions occur on
    all atoms of that type.
 3. The word 'Core' in the left margin signals that it is a Core Function (CF) : not a
    degree of freedom in the valence set, but only used to ensure orthogonalization of
    the other valence basis functions on the frozen Core Orbitals.


 (power of) X  Y  Z  R     Alpha  on Atom
            ==========     =====     ==========

 Mo                                   1
                                  ---------------------------------------------------------------------------
    Core    0  0  0  0    30.500      1
    Core    0  0  0  1    17.750      2
    Core    0  0  0  2     8.350      3
    Core    1  0  0  0    18.600      4
    Core    0  1  0  0    18.600      5
    Core    0  0  1  0    18.600      6
    Core    1  0  0  1     8.700      7
    Core    0  1  0  1     8.700      8
    Core    0  0  1  1     8.700      9
    Core    2  0  0  0    10.050     10
    Core    1  1  0  0    10.050     11
    Core    1  0  1  0    10.050     12
    Core    0  2  0  0    10.050     13
    Core    0  1  1  0    10.050     14
    Core    0  0  2  0    10.050     15
            0  0  0  3     5.100     16
            0  0  0  3     3.300     17
            0  0  0  4     2.150     18
            0  0  0  4     1.350     19
            0  0  0  4     0.870     20
            1  0  0  2     4.950     21
            0  1  0  2     4.950     22
            0  0  1  2     4.950     23
            1  0  0  2     3.300     24
            0  1  0  2     3.300     25
            0  0  1  2     3.300     26
            1  0  0  2     2.300     27
            0  1  0  2     2.300     28
            0  0  1  2     2.300     29
            2  0  0  1     3.500     30
            1  1  0  1     3.500     31
            1  0  1  1     3.500     32
            0  2  0  1     3.500     33
            0  1  1  1     3.500     34
            0  0  2  1     3.500     35
            2  0  0  1     1.850     36
            1  1  0  1     1.850     37
            1  0  1  1     1.850     38
            0  2  0  1     1.850     39
            0  1  1  1     1.850     40
            0  0  2  1     1.850     41
            2  0  0  1     0.970     42
            1  1  0  1     0.970     43
            1  0  1  1     0.970     44
            0  2  0  1     0.970     45
            0  1  1  1     0.970     46
            0  0  2  1     0.970     47
            1  0  0  3     1.350     48
            0  1  0  3     1.350     49
            0  0  1  3     1.350     50
1
 ***************************************************************************************************



                                              ***********************
                                              *  T E C H N I C A L  *
                                              ***********************
  



 =============================================================
 P A R A L L E L I Z A T I O N  and  V E C T O R I Z A T I O N
 =============================================================
  
 Nr of parallel processes:                                1
 Maximum vector length in NumInt loops:                 128



 =====================
 S C F   U P D A T E S
 =====================
  
 Max. nr. of cycles:                               300
 Convergence criterion:                              0.0000000100
   secondary criterion:                              0.0000000100

 Mix parameter (when DIIS does not apply):           0.2000000000
 Special mix parameter for the first cycle:          1.0000000000
 Mixed ADIIS+SDIIS will be used                  
    Max number of expansion vectors:                10
    Pure ADIIS when Max([F,P]) is above              0.1000000000
    Pure SDIIS when Max([F,P]) is below              0.0010000000
 Automatic ElectronSmearing (in case of problematic SCF convergence) disabled



 =================
 P R E C I S I O N  ***  (General: NumInt, NeglectFunctionTails, ...)  ***
 =================
  

 NumInt:           Target precision:                12.0000000000
 -------           Initial precision:               10.0000000000
                   Min. precision (optimization):   10.0000000000

 Neglect Functions:          Basis functions:        0.1000000000E-13
 ------------------          Fit functions:          0.1000000000E-13



 ===========================
 L I N E A R   S C A L I N G
 ===========================
  

 Cut-off radii density fit:                        0.1000000000E-97
 Overlap cut-off criterion AO matrix elements:     0.1000000000E-97
 Cut-offs for Coulomb potential and fitted density:0.1000000000E-97
 Cut-off criterion for Coulomb multipole terms:    0.1000000000E-97
 Progressive Convergence parameter:                 0.000000000    
1
 ***************************************************************************************************



                                            ***************************
                                            *  C O M P U T A T I O N  *
                                            ***************************
  

 Number of elements of the density matrix on this node (used, total):      1275      1275



 ===========================================
 Numerical Integration : Fuzzy Cells (Becke)
 ===========================================
  
 Becke grid quality: VERYGOOD       
  
 Lebedev angular grid order:             min:  13 max:  41
 Nr. of radial points:                   min: 106 max: 106

 Total nr. of points:        106
 Nr. of blocks:                1
 Block length:               106
 Nr. of dummy points:          0


 Test of Precision of the Numerical Integration Grid
 ===================================================

 Integral of the Total Core Density:                  28.00000000969493
 Relative Error:                                       3.462E-10



 ========================
 Density Fitting (zlmFit)
 ========================
  
 ZlmFit Fit Quality: VERYGOOD       
  
 Max L-expansion:                        min:   0 max:   0
 Nr. of radial interpolation points:     min: 230 max: 230



 =====
 S C F  ***  ScaSCF  ***
 =====
  

 CYCLE    1
 SCF Error: norm([F,P])=      0.000000000000, max([F,P])=      0.000000000000
 orbitals (Q,E):
 ---------------
 S :1...5            ( 2.00   -11.6814)  ( 1.00    -6.3532)  ( 0.00    -3.9976)  ( 0.00    -2.6589)
                     ( 0.00    -1.7000)
 P :1...4            ( 6.00   -10.5018)  ( 0.00    -5.8212)  ( 0.00    -3.6400)  ( 0.00    -2.5070)
 D :1...3            ( 5.00    -8.4786)  ( 0.00    -4.5701)  ( 0.00    -2.4939)

 CYCLE    2
  SDIIS (wt  0.000):  1.0000  0.0000
 A-DIIS (wt  1.000):  0.1286  0.8714
  DIIS coefficients:  0.1286  0.8714
 SCF Error: norm([F,P])=      7.148790686087, max([F,P])=      2.364314963741
 orbitals (Q,E):
 ---------------
 S :1...3            ( 2.00    -1.8793)  ( 1.00    -0.4080)  ( 0.00    -0.1761)
 P :1...2            ( 6.00    -1.0989)  ( 0.00    -0.2723)
 D :1...2            ( 5.00    -0.2758)  ( 0.00    -0.0263)

 CYCLE    3
  SDIIS (wt  0.000):  0.3519  0.6481
 A-DIIS (wt  1.000):  0.2376  0.7624
  DIIS coefficients:  0.2376  0.7624
 SCF Error: norm([F,P])=      4.212278243430, max([F,P])=      1.568530983970
 orbitals (Q,E):
 ---------------
 S :1...3            ( 2.00    -3.0898)  ( 1.00    -0.3551)  ( 0.00    -0.0106)
 P :1...2            ( 6.00    -2.0988)  ( 0.00    -0.1560)
 D :1...2            ( 5.00    -0.6568)  ( 0.00     0.0486)

 CYCLE    4
  SDIIS (wt  0.000): -0.0802  0.2380  0.8422
 A-DIIS (wt  1.000):  0.0000  0.2131  0.7869
  DIIS coefficients:  0.0000  0.2131  0.7869
 SCF Error: norm([F,P])=      1.823310320672, max([F,P])=      0.621470068658
 orbitals (Q,E):
 ---------------
 S :1...3            ( 2.00    -2.1329)  ( 1.00    -0.1098)  ( 0.00     0.0530)
 P :1...2            ( 6.00    -1.2112)  ( 0.00     0.0122)
 D :1...2            ( 5.00    -0.0245)  ( 0.00     0.1765)

 CYCLE    5
  SDIIS (wt  0.000): -0.0246 -0.0857  0.3373  0.7730
 A-DIIS (wt  1.000):  0.0000  0.0000  0.3000  0.7000
  DIIS coefficients:  0.0000  0.0000  0.3000  0.7000
 SCF Error: norm([F,P])=      1.058828219057, max([F,P])=      0.362553371378
 orbitals (Q,E):
 ---------------
 S :1...3            ( 2.00    -2.5065)  ( 1.00    -0.1954)  ( 0.00     0.0191)
 P :1...2            ( 6.00    -1.5530)  ( 0.00    -0.0541)
 D :1...2            ( 5.00    -0.2373)  ( 0.00     0.1039)

 CYCLE    6
  SDIIS (wt  0.000):  0.0107 -0.0168 -0.1404  0.2233  0.9231
 A-DIIS (wt  1.000):  0.0000  0.0000  0.0000  0.1685  0.8315
  DIIS coefficients:  0.0000  0.0000  0.0000  0.1685  0.8315
 SCF Error: norm([F,P])=      0.386302370665, max([F,P])=      0.125926487743
 orbitals (Q,E):
 ---------------
 S :1...3            ( 2.00    -2.2911)  ( 1.00    -0.1348)  ( 0.00     0.0380)
 P :1...2            ( 6.00    -1.3509)  ( 0.00    -0.0079)
 D :1...2            ( 5.00    -0.0948)  ( 0.00     0.1449)

 CYCLE    7
  SDIIS (wt  0.044): -0.0008  0.0043  0.0172 -0.1816  0.1952  0.9657
 A-DIIS (wt  0.956):  0.0000  0.0000  0.0000  0.0000  0.3526  0.6474
  DIIS coefficients: -0.0000  0.0002  0.0008 -0.0081  0.3456  0.6615
 SCF Error: norm([F,P])=      0.284734623559, max([F,P])=      0.095612429384
 orbitals (Q,E):
 ---------------
 S :1...3            ( 2.00    -2.3844)  ( 1.00    -0.1556)  ( 0.00     0.0295)
 P :1...2            ( 6.00    -1.4366)  ( 0.00    -0.0239)
 D :1...2            ( 5.00    -0.1494)  ( 0.00     0.1281)

 CYCLE    8
  SDIIS (wt  0.772):  0.0000  0.0002 -0.0034 -0.0193  0.0076  0.2482  0.7667
 A-DIIS (wt  0.228):  0.0000  0.0000  0.0000  0.0000  0.0000  0.0289  0.9711
  DIIS coefficients:  0.0000  0.0002 -0.0026 -0.0149  0.0058  0.1982  0.8133
 SCF Error: norm([F,P])=      0.070427042512, max([F,P])=      0.023581757016
 orbitals (Q,E):
 ---------------
 S :1...3            ( 2.00    -2.3580)  ( 1.00    -0.1494)  ( 0.00     0.0311)
 P :1...2            ( 6.00    -1.4122)  ( 0.00    -0.0192)
 D :1...2            ( 5.00    -0.1332)  ( 0.00     0.1325)

 CYCLE    9
  SDIIS (wt  0.929): -0.0000 -0.0000  0.0002  0.0020 -0.0040 -0.0349  0.1906  0.8461
 A-DIIS (wt  0.071):  0.0000  0.0000  0.0000  0.0000  0.0000  0.0000  0.1077  0.8923
  DIIS coefficients: -0.0000 -0.0000  0.0002  0.0018 -0.0037 -0.0324  0.1847  0.8494
 SCF Error: norm([F,P])=      0.024021634807, max([F,P])=      0.008070140854
 orbitals (Q,E):
 ---------------
 S :1...3            ( 2.00    -2.3650)  ( 1.00    -0.1511)  ( 0.00     0.0305)
 P :1...2            ( 6.00    -1.4187)  ( 0.00    -0.0205)
 D :1...2            ( 5.00    -0.1375)  ( 0.00     0.1313)

 CYCLE   10
  SDIIS (wt  1.000):  0.0000  0.0000 -0.0000 -0.0003  0.0006  0.0038 -0.0155  1.0114
  DIIS coefficients:  0.0000  0.0000 -0.0000 -0.0003  0.0006  0.0038 -0.0155  1.0114
 SCF Error: norm([F,P])=      0.001691537232, max([F,P])=      0.000569379855
 orbitals (Q,E):
 ---------------
 S :1...3            ( 2.00    -2.3645)  ( 1.00    -0.1510)  ( 0.00     0.0305)
 P :1...2            ( 6.00    -1.4182)  ( 0.00    -0.0204)
 D :1...2            ( 5.00    -0.1372)  ( 0.00     0.1314)

 CYCLE   11
  SDIIS (wt  1.000):  0.0000 -0.0000  0.0000  0.0002 -0.0008 -0.0102 -0.0868  1.0976
  DIIS coefficients:  0.0000 -0.0000  0.0000  0.0002 -0.0008 -0.0102 -0.0868  1.0976
 SCF Error: norm([F,P])=      0.000000816018, max([F,P])=      0.000000266639
 orbitals (Q,E):
 ---------------
 S :1...3            ( 2.00    -2.3645)  ( 1.00    -0.1510)  ( 0.00     0.0305)
 P :1...2            ( 6.00    -1.4182)  ( 0.00    -0.0204)
 D :1...2            ( 5.00    -0.1372)  ( 0.00     0.1314)

 CYCLE   12
  SDIIS (wt  1.000): -0.0000  0.0000  0.0001  0.0011  0.0118  0.9869
  DIIS coefficients: -0.0000  0.0000  0.0001  0.0011  0.0118  0.9869
 SCF Error: norm([F,P])=      0.000000024268, max([F,P])=      0.000000008564
 orbitals (Q,E):
 ---------------
 S :1...3            ( 2.00    -2.3645)  ( 1.00    -0.1510)  ( 0.00     0.0305)
 P :1...2            ( 6.00    -1.4182)  ( 0.00    -0.0204)
 D :1...2            ( 5.00    -0.1372)  ( 0.00     0.1314)

 SCF CONVERGED

 CYCLE   13
1
 ***************************************************************************************************



                                                *******************
                                                *  R E S U L T S  *
                                                *******************
  
 *** Using FIT density in Focky
  SDIIS (wt  1.000):  0.0000  0.0000 -0.0009 -0.0131  1.0139
  DIIS coefficients:  0.0000  0.0000 -0.0009 -0.0131  1.0139
 SCF Error: norm([F,P])=      0.000000001716, max([F,P])=      0.000000000646

 Scaled ZORA Orbital Energies, per Irrep and Spin:
 =================================================
                        Occup              E (au)              E (eV)       Diff (eV) with prev. cycle
                        -----      --------------------        ------       --------------------------
 S
               1        2.000     -0.23645412461087E+01       -64.342               1.08E-08
               2        1.000     -0.15095063251582E+00        -4.108               1.52E-08
               3        0.000      0.30491108737404E-01         0.830
               4        0.000      0.39955981712578E+00        10.873
               5        0.000      0.28259043504195E+01        76.897
 P
               1        6.000     -0.14182481541156E+01       -38.592               1.24E-08
               2        0.000     -0.20381990593673E-01        -0.555
               3        0.000      0.61122831684606E+00        16.632
               4        0.000      0.40294008516846E+01       109.646
 D
               1        5.000     -0.13719857998971E+00        -3.733               1.57E-08
               2        0.000      0.13138303481334E+00         3.575
               3        0.000      0.10915573963069E+01        29.703


 Partially Occupied:
               2 S                -0.15095063251582E+00
               1 D                -0.13719857998971E+00
  
 HOMO :        1 P                -0.14182481541156E+01
 LUMO :        2 P                -0.20381990593673E-01
  


 Orbital Energies, all Irreps
 ========================================

 Irrep        no.  (spin)   Occup              E (au)                E (eV)
 ---------------------------------------------------------------------------
 S             1             2.00       -0.23645412461087E+01       -64.3424
 P             1             6.00       -0.14182481541156E+01       -38.5925
 S             2             1.00       -0.15095063251582E+00        -4.1076
 D             1             5.00       -0.13719857998971E+00        -3.7334
 P             2             0.00       -0.20381990593673E-01        -0.5546
 S             3             0.00        0.30491108737404E-01         0.8297
 D             2             0.00        0.13138303481334E+00         3.5751
 S             4             0.00        0.39955981712578E+00        10.8726
 P             3             0.00        0.61122831684606E+00        16.6324
 D             3             0.00        0.10915573963069E+01        29.7028
 S             5             0.00        0.28259043504195E+01        76.8968
 P             4             0.00        0.40294008516846E+01       109.6456


 Scaled ZORA Orbital Energies of the Core Orbitals:
 ==================================================

 (Note that the atoms are grouped by atomtype, see the labels, and may hence NOT be in input order)

 AtomType  Orbital  Atom                   E (au)                        E (eV)
 --------  -------  ----           --------------------        ----------------
 Mo          1S        1          -0.72810156987753E+03              -19812.652
             2S        1          -0.10281078869890E+03               -2797.624
             3S        1          -0.17490063510859E+02                -475.929
             2P        1          -0.91890973277880E+02               -2500.481
             3P        1          -0.13936907885645E+02                -379.243
             3D        1          -0.81284558211672E+01                -221.187



 =======================================
 M U L L I K E N   P O P U L A T I O N S
 =======================================
  
 The survey below gives for each atom:
 a) the total charge (Z minus electrons)
 b) the net spin polarization (nr of electrons spin-A minus spin-B)
 c) for each spin the atomic electron valence density (integrated) per L-value.

 Atom              Charge    Spin density          S         P         D         F
 ----              ------    ------------       ------    ------    ------    ------
 1 Mo              0.0000                       3.0000    6.0000    5.0000    0.0000

 Populations of individual BAS functions
 ----------------------------------------
 1 Mo          -0.0051  0.0033 -0.0315  0.0008  0.0008  0.0008  0.0345  0.0345  0.0345  0.0153
                0.0230  0.0230  0.0153  0.0230  0.0153  1.3114  0.7310  0.3903  0.5032  0.0973
                0.7293  0.7293  0.7293  1.1024  1.1024  1.1024  0.1310  0.1310  0.1310  0.2744
                0.4116  0.4116  0.2744  0.4116  0.2744  0.3155  0.4732  0.4732  0.3155  0.4732
                0.3155  0.0615  0.0922  0.0922  0.0615  0.0922  0.0615  0.0019  0.0019  0.0019

 Gross Charges per Atom (Z minus electrons)
 ==========================================
             0.0000
 Net Total:  0.00000000



 =======================================================================
 Electrostatic potential at the Nuclei due to electrons and other nuclei
 =======================================================================
  
         Atom                  Potential
         ----                  ---------
     1)   Mo                232.78835403
 
 
 ========================
 No memory problems found
 ========================
 
 Maximum number of active allocate calls:         389
 
 *******************************************************************************

                             A D F   E X I T
 NORMAL TERMINATION



 =================
 Timing Statistics
 =================
  
 Total Used :                     CPU=        0.75      System=        0.02     Elapsed=        0.81

 Calls  Section                     ( Mean, Percentage )
 ---------------------------------------------------------------------------------------------------
     3  ><      ................      0.00    0.53             0.00    0.00             0.00    0.54
     1  INIT    ................      0.07    9.09             0.00   20.00             0.07    9.23
     1  GEOMET  ................      0.02    2.14             0.00   20.00             0.03    3.22
     1  INPUTA  ................      0.00    0.00             0.00    0.00             0.00    0.45
     1  MAINSY  ................      0.02    2.67             0.00    0.00             0.02    2.64
     1  SYMFIT  ................      0.00    0.00             0.00    0.00             0.00    0.20
     1  CORORT  ................      0.00    0.53             0.00    0.00             0.00    0.25
     1  SYMORB  ................      0.00    0.00             0.00    0.00             0.00    0.11
     1  CLSMAT  ................      0.00    0.53             0.00    0.00             0.01    0.72
     1  ORTHON  ................      0.01    1.07             0.00    0.00             0.01    0.71
     1  GENPT   ................      0.02    2.67             0.00    0.00             0.02    2.97
     1  PTBAS   ................      0.01    1.07             0.00    0.00             0.01    0.69
    13  FOCKY   ................      0.04   67.38             0.00   40.00             0.04   65.03
    13  FOCKTR  ................      0.00    1.07             0.00    0.00             0.00    0.97
    13  SDIIS   ................      0.00    4.28             0.00    0.00             0.00    4.74
     1  COREPS  ................      0.04    4.81             0.00    0.00             0.04    4.64
     1  POPAN   ................      0.00    0.00             0.00   20.00             0.01    0.67
     1  DEBYE   ................      0.00    0.53             0.00    0.00             0.00    0.26
     1  EXIT PROCEDURE .........      0.01    1.60             0.00    0.00             0.02    1.95


 Currently Open Files (EXIT00)
 ====================

 Unit    Access Format  Status   Type       Ident (file)
 -------------------------------------------------------
   3      SEQ    FORM   TRANSP  NORMAL      LOGFILE
                                          ( logfile )

 ***************************************************************************************************
 (LOGFILE)
  Coordinates
    Atom         X           Y           Z   (Angstrom)
    1.P         0.000000    0.000000    0.000000
  Coordinates
    Atom         X           Y           Z   (Angstrom)
    1.Mo        0.000000    0.000000    0.000000

 *******************************************************************************
 *                                                                             *
 *  -------------------------------------                                      *
 *   Amsterdam Density Functional  (ADF)         2019                          *
 *  -------------------------------------                                      *
 *                                               r74351 2019-04-25             *
 *                                                                             *
 *                                                                             *
 *                            =====================                            *
 *                            |                   |                            *
 *                            |     D I R A C     |                            *
 *                            |                   |                            *
 *                            =====================                            *
 *                                                                             *
 *                                                                             *
 *   Online information and documentation:  https://www.scm.com/support/       *
 *   E-mail:  support@scm.com   info@scm.com                                   *
 *                                                                             *
 *   Scientific publications using ADF results must be properly referenced     *
 *   See the User Manuals (or the web site) for recommended citations          *
 *   The terms and conditions of the End User License Agreement apply to       *
 *   the use of ADF, https://www.scm.com/license-terms/                        *
 *                                                                             *
 **********************  x86_64_linux_intel / intelmpi  ************************
 
  
 DIRAC 2019  RunTime: Feb11-2023 05:01:05  Nodes: 1  Procs: 1

 Temporary files are created in /scratch/kid_0.1233883025

1
 OXYGEN ATOM 1s CORE RELATIVISTIC, Point Nuc, A and c from li
 N J RN H ZN XION ANUC CLIGHT
 5000    4100.00000000197.36710137  8.00000000  0.00000000   15.994914  0.1370360E+03
  PH   PHI     EPS        DEL        DELRVR
  0.30  0.30     2500.00  0.00001000  0.00001000
 IDIRC  NC1  NDEBU NPRIN  IPUN IRCOR IWCOR
   1   300     0     0     0     0     1
   XALPHA      XLATTER      RNUC
  0.70000000  0.00000000  0.00000000 Point Charge
   XN   XL   XJ      XE          XZ      XDELL
  1.0  0.0  0.5      -5.000       2.000     0.00000
  2.0  0.0  0.5      -1.000       2.000     0.00000
  2.0  1.0  0.5      -1.000       2.000     0.00000
  2.0  1.0  1.5      -1.000       2.000     0.00000
 ICORP=  0  NPCL=  0  DEMP=0.00  PEPS=0.000000
 R(1)=  0.1000000E-08 D=  0.1005080E+01 RNUC=  0.0000000E+00
 converged at cycle   28  DENSITY AVERAGING    0.2400
  MAXIMUM ERROR IN R.V(R) IS   0.81125670E-05
 Q,EY,EV,EZ,ESUM,ETOT,RHO  0.800000E+01 -0.101247E+02 -0.114961E+03 -0.177573E+03 -0.405053E+02 -0.743427E+02  0.414766E-14


 DIRAC CALCULATION
1                    OXYGEN ATOM 1s CORE RELATIVISTIC, Point Nuc, A and c from libtc


 EXCHANGE COEFFICIENT=  0.7000000           TAIL CORRECTION=  0.           NUCLEAR RADIUS=  0.000E+00
0                       ORBITAL    N    L    J     ELECTRONS     EIGENVALUE                DELTA OF EIGENV.

                          1S1/2  1.0  0.0  0.5     2.000       -0.1880014E+02                 0.7264358E-06
                          2S1/2  2.0  0.0  0.5     2.000       -0.8412236E+00                 0.5932752E-05
                          2P1/2  2.0  1.0  0.5     2.000       -0.3063203E+00                 0.5998471E-05
                          2P3/2  2.0  1.0  1.5     2.000       -0.3049609E+00                 0.5986971E-05


                                        NUCLEAR CHARGE=    8.000000
                            INTEGRAL OF CHARGE DENSITY=    8.000000
                           SUM OF THE ORBITAL ENERGIES=    -40.5053
                                          TOTAL ENERGY=    -74.3427
                                        KINETIC ENERGY=     74.4552
                             NUCLEAR ATTRACTION ENERGY=   -177.5730
                             ELECTRON REPULSION ENERGY=     36.3686
                                       EXCHANGE ENERGY=     -7.5935

 *******************************************************************************

                             D I R A C   E X I T
 NORMAL TERMINATION



 =================
 Timing Statistics
 =================
  
 Total Used :                     CPU=        0.13      System=        0.00     Elapsed=        0.14

 Calls  Section                     ( Mean, Percentage )
 ---------------------------------------------------------------------------------------------------
     2  ><      ................      0.00    0.00             0.00    0.00             0.00    0.01
     1  EXIT PROCEDURE .........      0.13  100.00             0.00    0.00             0.14   99.99


 Currently Open Files (EXIT00)
 ====================

 Unit    Access Format  Status   Type       Ident (file)
 -------------------------------------------------------
   3      SEQ    FORM   TRANSP  NORMAL      LOGFILE
                                          ( logfile )
 
Create O   file=TZP-O.1s
XC
  GGA PBE
End
relativistic ZORA
Corepotentials t12.rel
End

 *******************************************************************************
 *                                                                             *
 *  -------------------------------------                                      *
 *   Amsterdam Density Functional  (ADF)         2019                          *
 *  -------------------------------------                                      *
 *                                               r74351 2019-04-25             *
 *                                                                             *
 *                                                                             *
 *                              =================                              *
 *                              |               |                              *
 *                              |     A D F     |                              *
 *                              |               |                              *
 *                              =================                              *
 *                                                                             *
 *                                                                             *
 *   Online information and documentation:  https://www.scm.com/support/       *
 *   E-mail:  support@scm.com   info@scm.com                                   *
 *                                                                             *
 *   Scientific publications using ADF results must be properly referenced     *
 *   See the User Manuals (or the web site) for recommended citations          *
 *   The terms and conditions of the End User License Agreement apply to       *
 *   the use of ADF, https://www.scm.com/license-terms/                        *
 *                                                                             *
 **********************  x86_64_linux_intel / intelmpi  ************************
 
  
 ADF 2019  RunTime: Feb11-2023 05:01:05  Nodes: 1  Procs: 1

 Temporary files are created in /scratch/kid_0.49905864

 Oxygen (TZP, 1s frozen)



 ===========================
 A T T A C H E D   F I L E S
 ===========================
  
 CREATE - Data File:    TZP-O.1s
                        Oxygen (TZP, 1s frozen)
 Core Potentials:
         file : t12.rel



 ===============================
 M O D E L   P A R A M E T E R S
 ===============================
  
 DENSITY FUNCTIONAL POTENTIAL (scf)
    LDA:                               PW92                                    == Not Default ==
    Gradient Corrections:              PBEc PBEx                               == Not Default ==

 SPIN  (restricted / unrestr.)
    Molecule:                          Restricted                               

 OTHER ASPECTS
    Relativistic Corrections:          scalar (ZORA,MAPA)                      == Not Default ==

    Nuclear Charge Density Model:      Point Charge Nuclei                      
    Core Treatment:                    Frozen Orbital(s)                        

    Hyperfine or Zeeman Interaction:   ---                                      



 =====================================
 S Y M M E T R Y ,   E L E C T R O N S
 =====================================
  
 Symmetry: ATOM

 Irreducible Representations, including subspecies
 -------------------------------------------------
 S
 P:x  P:y  P:z
 D:z2  D:x2-y2  D:xy  D:xz  D:yz
 F:z3  F:z  F:xyz  F:z2x  F:z2y  F:x  F:y


 Configuration of Valence Electrons
 ==================================

          Occupation Numbers
          -------------------------------------------------
 S        2
 P        4
 D        0
 F        0
          -------------------------------------------------

 Total:   6

 Net Charge: 0 (Nuclei minus Electrons)

 Preset values for MO occupations will be applied through SCF cycle no. 1000000
 Thereafter, the program will assign electrons to MOs that are spatially
 similar to the occupied MOs in a "reference" cycle ("KeepOrbitals").
 The reference cycle is always the PREVIOUS cycle: it will evolve with
 the SCF procedure.



 ================================
 (Slater-type)  F U N C T I O N S  ***  (Basis and Fit)  ***
 ================================
  

 Atom Type    1  (O)
 ==============

 Valence Basis Sets:   8
 -----------------------
   1 S    7.360000
   2 S    1.720000
   2 S    2.880000
   2 S    7.580000
   2 P    1.120000
   2 P    2.080000
   2 P    4.080000
   3 D    2.000000

 Frozen Core Shells
 ------------------
    S:  1


 BAS: List of all Elementary Cartesian Basis Functions
 =====================================================

 The numbering in the list below (to the right of the function characteristics) is referred
 to in print-outs of MO eigenvectors and Mulliken populations in the BAS representation
 (as contrasted to the SFO representation).

 Notes:
 1. The functions are characterized by a polynomial prefactor (powers of x,y,z and r) and
    an exponential decay factor alpha.
 2. Since the basis sets are specific for an atom TYPE, the individual functions occur on
    all atoms of that type.
 3. The word 'Core' in the left margin signals that it is a Core Function (CF) : not a
    degree of freedom in the valence set, but only used to ensure orthogonalization of
    the other valence basis functions on the frozen Core Orbitals.


 (power of) X  Y  Z  R     Alpha  on Atom
[...]
                                    746  765  784  803  822  841  860  879  898  917  936  955  974  993 1012
                                   1031 1050 1069 1088
            0  1  0  0     4.080    462  481  500  519  538  557  576  595  614  633  652  671  690  709  728
                                    747  766  785  804  823  842  861  880  899  918  937  956  975  994 1013
                                   1032 1051 1070 1089
            0  0  1  0     4.080    463  482  501  520  539  558  577  596  615  634  653  672  691  710  729
                                    748  767  786  805  824  843  862  881  900  919  938  957  976  995 1014
                                   1033 1052 1071 1090
            2  0  0  0     2.000    464  483  502  521  540  559  578  597  616  635  654  673  692  711  730
                                    749  768  787  806  825  844  863  882  901  920  939  958  977  996 1015
                                   1034 1053 1072 1091
            1  1  0  0     2.000    465  484  503  522  541  560  579  598  617  636  655  674  693  712  731
                                    750  769  788  807  826  845  864  883  902  921  940  959  978  997 1016
                                   1035 1054 1073 1092
            1  0  1  0     2.000    466  485  504  523  542  561  580  599  618  637  656  675  694  713  732
                                    751  770  789  808  827  846  865  884  903  922  941  960  979  998 1017
                                   1036 1055 1074 1093
            0  2  0  0     2.000    467  486  505  524  543  562  581  600  619  638  657  676  695  714  733
                                    752  771  790  809  828  847  866  885  904  923  942  961  980  999 1018
                                   1037 1056 1075 1094
            0  1  1  0     2.000    468  487  506  525  544  563  582  601  620  639  658  677  696  715  734
                                    753  772  791  810  829  848  867  886  905  924  943  962  981 1000 1019
                                   1038 1057 1076 1095
            0  0  2  0     2.000    469  488  507  526  545  564  583  602  621  640  659  678  697  716  735
                                    754  773  792  811  830  849  868  887  906  925  944  963  982 1001 1020
                                   1039 1058 1077 1096

 P                                   44
                                  ---------------------------------------------------------------------------
    Core    0  0  0  0    12.550   1097
            0  0  0  1     5.600   1098
            0  0  0  1     4.050   1099
            1  0  0  0     7.450   1100
            0  1  0  0     7.450   1101
            0  0  1  0     7.450   1102
            1  0  0  0     4.100   1103
            0  1  0  0     4.100   1104
            0  0  1  0     4.100   1105
            0  0  0  2     1.300   1106
            0  0  0  2     1.850   1107
            0  0  0  2     2.650   1108
            1  0  0  1     0.850   1109
            0  1  0  1     0.850   1110
            0  0  1  1     0.850   1111
            1  0  0  1     1.300   1112
            0  1  0  1     1.300   1113
            0  0  1  1     1.300   1114
            1  0  0  1     2.050   1115
            0  1  0  1     2.050   1116
            0  0  1  1     2.050   1117
            2  0  0  0     1.900   1118
            1  1  0  0     1.900   1119
            1  0  1  0     1.900   1120
            0  2  0  0     1.900   1121
            0  1  1  0     1.900   1122
            0  0  2  0     1.900   1123

 Total number of charge fitting functions (nprimf)      4964
 Total number of Cartesian basis functions (naos)       1123
 Total number of Cartesian core functions  (ncos)        170



 Scanning vibration frequency    1 A2 =      -17.950



 -------------------------------------------
  COSMO surface
  Area             =         1616.082
  Volume           =         4481.631
  Number of Points =         3751
 -------------------------------------------



 ========================
 Density Fitting (zlmFit)
 ========================
  
 ZlmFit Fit Quality: GOOD           
  
 Max L-expansion:                        min:   8 max:   9
 Nr. of radial interpolation points:     min:  84 max: 138
 Initial density matrix is taken from previous geometry
 cosmo_calcen: 0.5 (esolb+esolc) (Hartrees) =   -3.738268

 Solvation energy (screening term,uncorrected) =  -2345.798763 kcal/mol

 Solvation energy (dispersion and cavitation terms) =      3.021949 kcal/mol
 Solvation Energy Contributions (Hartrees)
          esola   esolb+esolc
     3.73826789   -7.47653578
 esol last cycle   -3.73826789
 cosmo_calcen: 0.5 (esolb+esolc) (Hartrees) =   -3.738268

 Solvation energy (screening term,uncorrected) =  -2345.798663 kcal/mol

 Solvation energy (dispersion and cavitation terms) =      3.021949 kcal/mol
 Solvation Energy Contributions (Hartrees)
          esola   esolb+esolc
     3.73826773   -7.47653546
 esol last cycle   -3.73826773


 -------------------------------------------
  COSMO surface
  Area             =         1616.082
  Volume           =         4481.631
  Number of Points =         3751
 -------------------------------------------



 ========================
 Density Fitting (zlmFit)
 ========================
  
 ZlmFit Fit Quality: GOOD           
  
 Max L-expansion:                        min:   8 max:   9
 Nr. of radial interpolation points:     min:  84 max: 138
 Initial density matrix is taken from previous geometry
 cosmo_calcen: 0.5 (esolb+esolc) (Hartrees) =   -3.738268

 Solvation energy (screening term,uncorrected) =  -2345.798771 kcal/mol

 Solvation energy (dispersion and cavitation terms) =      3.021949 kcal/mol
 Solvation Energy Contributions (Hartrees)
          esola   esolb+esolc
     3.73826790   -7.47653580
 esol last cycle   -3.73826790
 cosmo_calcen: 0.5 (esolb+esolc) (Hartrees) =   -3.738268

 Solvation energy (screening term,uncorrected) =  -2345.798671 kcal/mol

 Solvation energy (dispersion and cavitation terms) =      3.021949 kcal/mol
 Solvation Energy Contributions (Hartrees)
          esola   esolb+esolc
     3.73826774   -7.47653548
 esol last cycle   -3.73826774
 Old frequency:    -17.94960, new:     74.78058



 ===================
 Vibration symmetry:  ***  E1:1  ***
 ===================
  
 Total number of frequencies of this symmetry:    42
 Frequencies, cm^(-1):
      32.175      66.985      93.190      99.093     107.551     120.213     123.666     130.702
     149.058     158.857     176.236     189.054     194.337     196.066     202.878     225.605
     244.265     249.735     285.274     298.106     323.367     332.159     343.091     345.982
     382.213     390.174     398.939     418.975     426.551     466.467     533.266     550.939
     581.394     645.157     715.727     774.420     782.793     814.243     835.046     857.263
     865.440     897.640
 Number of frequencies in the requested range:     0
 ===================================================================================================
 Summary of a frequency scan in the requested range: 
 (One component per degenerate irreducible representations, degeneracy is not counted in the intens.)
 ---------------------------------------------------------------------------------------------------
 Frequency, cm**(-1)      Dipol moment derivatives (a.u.)      IR Intensity   Force const   Red.mass
    Old      New                X         Y         Z            km/mole          a.u.        a.u.
 ---------------------------------------------------------------------------------------------------
 Vibration symmetry: A1
    59.105      not re-calculated (not in the required range)
    98.242      not re-calculated (not in the required range)
   108.422      not re-calculated (not in the required range)
   132.150      not re-calculated (not in the required range)
   154.490      not re-calculated (not in the required range)
   180.679      not re-calculated (not in the required range)
   208.718      not re-calculated (not in the required range)
   224.874      not re-calculated (not in the required range)
   251.888      not re-calculated (not in the required range)
   294.513      not re-calculated (not in the required range)
   341.933      not re-calculated (not in the required range)
   353.019      not re-calculated (not in the required range)
   361.709      not re-calculated (not in the required range)
   380.350      not re-calculated (not in the required range)
   411.724      not re-calculated (not in the required range)
   425.217      not re-calculated (not in the required range)
   473.493      not re-calculated (not in the required range)
   483.234      not re-calculated (not in the required range)
   511.478      not re-calculated (not in the required range)
   724.546      not re-calculated (not in the required range)
   818.936      not re-calculated (not in the required range)
   829.160      not re-calculated (not in the required range)
   850.151      not re-calculated (not in the required range)
   875.715      not re-calculated (not in the required range)
  1165.979      not re-calculated (not in the required range)
 ---------------------------------------------------------------------------------------------------
 Vibration symmetry: A2
   -17.950    74.781          0.000    -0.001    -0.000            0.001      0.01730929   81.791086
    46.664      not re-calculated (not in the required range)
    61.246      not re-calculated (not in the required range)
   131.316      not re-calculated (not in the required range)
   137.326      not re-calculated (not in the required range)
   174.175      not re-calculated (not in the required range)
   202.879      not re-calculated (not in the required range)
   243.364      not re-calculated (not in the required range)
   280.517      not re-calculated (not in the required range)
   328.094      not re-calculated (not in the required range)
   361.756      not re-calculated (not in the required range)
   503.385      not re-calculated (not in the required range)
   538.490      not re-calculated (not in the required range)
   581.603      not re-calculated (not in the required range)
   730.948      not re-calculated (not in the required range)
   811.568      not re-calculated (not in the required range)
   868.253      not re-calculated (not in the required range)
 ---------------------------------------------------------------------------------------------------
 Vibration symmetry: E1:1
    32.175      not re-calculated (not in the required range)
    66.985      not re-calculated (not in the required range)
    93.190      not re-calculated (not in the required range)
    99.093      not re-calculated (not in the required range)
   107.551      not re-calculated (not in the required range)
   120.213      not re-calculated (not in the required range)
   123.666      not re-calculated (not in the required range)
   130.702      not re-calculated (not in the required range)
   149.058      not re-calculated (not in the required range)
   158.857      not re-calculated (not in the required range)
   176.236      not re-calculated (not in the required range)
   189.054      not re-calculated (not in the required range)
   194.337      not re-calculated (not in the required range)
   196.066      not re-calculated (not in the required range)
   202.878      not re-calculated (not in the required range)
   225.605      not re-calculated (not in the required range)
   244.265      not re-calculated (not in the required range)
   249.735      not re-calculated (not in the required range)
   285.274      not re-calculated (not in the required range)
   298.106      not re-calculated (not in the required range)
   323.367      not re-calculated (not in the required range)
   332.159      not re-calculated (not in the required range)
   343.091      not re-calculated (not in the required range)
   345.982      not re-calculated (not in the required range)
   382.213      not re-calculated (not in the required range)
   390.174      not re-calculated (not in the required range)
   398.939      not re-calculated (not in the required range)
   418.975      not re-calculated (not in the required range)
   426.551      not re-calculated (not in the required range)
   466.467      not re-calculated (not in the required range)
   533.266      not re-calculated (not in the required range)
   550.939      not re-calculated (not in the required range)
   581.394      not re-calculated (not in the required range)
   645.157      not re-calculated (not in the required range)
   715.727      not re-calculated (not in the required range)
   774.420      not re-calculated (not in the required range)
   782.793      not re-calculated (not in the required range)
   814.243      not re-calculated (not in the required range)
   835.046      not re-calculated (not in the required range)
   857.263      not re-calculated (not in the required range)
   865.440      not re-calculated (not in the required range)
   897.640      not re-calculated (not in the required range)
 ===================================================================================================



 ============================
 Statistical Thermal Analysis  ***  ideal gas assumed  ***
 ============================
  
 Pressure:                  1.000000 atm.
 Temperature:             298.150000 K



 Moments of Inertia [amu*bohr^2] and principal axis
 ==================================================

       41853.2211      41853.2211      56761.0917
 ------------------------------------------------
           0.9467         -0.3220          0.0000
           0.3220          0.9467          0.0000
           0.0000          0.0000          1.0000


 The rotational contribution to the molecular entropy includes
 a term, dependent on the symmetry number sigma. The results 
 reported below were computed using sigma = 1, determined from
 the point group symmetry of the input geometry (NOSYM). 
 If this is not the correct symmetry, try symmetrizing the molecule before
 running the calculation (note: linear molecules should be aligned along one
 of the Cartesian axes).
 Contributions from frequencies below 20 1/cm are not included in
 the vibrational sums. Their contributions, if any, are reported separately.


     Temp                                                       Transl     Rotat    Vibrat     Total
     ----                                                       ------     -----    ------     -----

     298.15   Entropy (cal/mole-K):                             47.701    39.827   203.422   290.950
              Internal Energy (Kcal/mole):                       0.889     0.889   101.668   103.445
              Constant Volume Heat Capacity (cal/mole-K):        2.981     2.981   183.885   189.847

              Summary of energy terms
                                                   hartree              eV         kcal/mol           kJ/mol
                                      --------------------     -----------       ----------      -----------
              Bond Energy:             -14.178114918379828       -385.8061         -8896.90        -37224.64
              Internal Energy:           0.164850511272530          4.4858           103.45           432.81
              pV/n = RT:                 0.000944186013486          0.0257             0.59             2.48
              Enthalpy H:              -14.012320221093812       -381.2946         -8792.86        -36789.34
              -T*S:                     -0.138239884396067         -3.7617           -86.75          -362.95
              Gibbs free energy:       -14.150560105489880       -385.0563         -8879.61        -37152.29
 
 
 ==================================
 Memory not completely deallocated!
 ==================================
 
 Number of unbalanced allocate calls:               1
 Maximum number of active allocate calls:        7590
 
 *******************************************************************************

                             A D F   E X I T
 NORMAL TERMINATION



 =================
 Timing Statistics
 =================
  
 Total Used :                     CPU=    15093.89      System=      153.42     Elapsed=    15500.78

 Calls  Section                     ( Mean, Percentage )
 ---------------------------------------------------------------------------------------------------
     4  ><      ................      0.11    0.00             0.05    0.12             0.45    0.01
     1  INIT    ................      0.52    0.00             0.01    0.01             0.54    0.00
     1  GEOMET  ................      0.07    0.00             0.01    0.01             0.12    0.00
     2  FRAGM   ................      0.03    0.00             0.02    0.02             0.05    0.00
     2  INPUTA  ................      0.00    0.00             0.00    0.00             0.00    0.00
     2  ATDEN   ................      0.00    0.00             0.00    0.00             0.01    0.00
    22  MAINSY  ................      0.11    0.02             0.05    0.69             0.19    0.03
    22  SYMFIT  ................      0.04    0.01             0.00    0.01             0.05    0.01
    22  CORORT  ................      0.30    0.04             0.00    0.05             0.30    0.04
    22  SYMORB  ................      0.04    0.01             0.00    0.05             0.05    0.01
    22  CLSMAT  ................      0.03    0.00             0.01    0.17             0.04    0.01
    22  ORTHON  ................      0.06    0.01             0.03    0.40             0.09    0.01
    22  GENPT   ................      0.57    0.08             0.01    0.17             0.58    0.08
    22  PTBAS   ................     14.36    2.09             0.12    1.73            14.56    2.07
   533  FOCKY   ................      8.91   31.45             0.10   33.91             9.23   31.73
   533  FOCKTR  ................      0.04    0.13             0.01    4.71             0.05    0.17
   533  SDIIS   ................      0.01    0.02             0.00    0.11             0.01    0.02
    22  TOTEN   ................     16.77    2.44             0.18    2.63            17.36    2.46
    22  POPAN   ................      0.05    0.01             0.01    0.15             0.06    0.01
    22  DEBYE   ................      0.07    0.01             0.02    0.28             0.09    0.01
    20  INPUTE  ................      0.00    0.00             0.00    0.00             0.00    0.00
    20  SYMORE  ................      0.00    0.00             0.00    0.01             0.00    0.00
    41  ELNRGY  ................     46.26   12.57             0.04    1.07            46.49   12.30
    21  ENGRAD  ................      0.00    0.00             0.00    0.06             0.01    0.00
     1  COREPS  ................      6.89    0.05             0.07    0.04             7.17    0.05
     1  METS    ................      0.00    0.00             0.00    0.00             0.01    0.00
     1  CETS    ................      0.06    0.00             0.02    0.01             0.07    0.00
     1  POPUL   ................      0.11    0.00             0.00    0.00             0.11    0.00
     1  ENHESS  ................   7707.51   51.06            82.10   53.51          7901.68   50.98
     1  EXIT PROCEDURE .........      0.09    0.00             0.11    0.07             0.24    0.00


 Currently Open Files (EXIT00)
 ====================

 Unit    Access Format  Status   Type       Ident (file)
 -------------------------------------------------------
   3      SEQ    FORM   TRANSP  NORMAL      LOGFILE
                                          ( logfile )

 ***************************************************************************************************
