
 *******************************************************************************
 *                                                                             *
 *  -------------------------------------                                      *
 *   Amsterdam Density Functional  (ADF)         2019                          *
 *  -------------------------------------                                      *
 *                                               r74351 2019-04-25             *
 *                                                                             *
 *                                                                             *
 *                            =====================                            *
 *                            |                   |                            *
 *                            |     D I R A C     |                            *
 *                            |                   |                            *
 *                            =====================                            *
 *                                                                             *
 *                                                                             *
 *   Online information and documentation:  https://www.scm.com/support/       *
 *   E-mail:  support@scm.com   info@scm.com                                   *
 *                                                                             *
 *   Scientific publications using ADF results must be properly referenced     *
 *   See the User Manuals (or the web site) for recommended citations          *
 *   The terms and conditions of the End User License Agreement apply to       *
 *   the use of ADF, https://www.scm.com/license-terms/                        *
 *                                                                             *
 **********************  x86_64_linux_intel / intelmpi  ************************
 
  
 DIRAC 2019  RunTime: Feb10-2023 06:42:34  Nodes: 1  Procs: 1

 Temporary files are created in /scratch/kid_0.1830044365

1
 PHOSPHORUS ATOM 1s CORE RELATIVISTIC, Point Nuc, A and c fro
 N J RN H ZN XION ANUC CLIGHT
 5000    7100.00000000197.36710137 15.00000000  0.00000000   30.973761  0.1370360E+03
  PH   PHI     EPS        DEL        DELRVR
  0.30  0.30     2500.00  0.00001000  0.00001000
 IDIRC  NC1  NDEBU NPRIN  IPUN IRCOR IWCOR
   1   300     0     0     0     0     1
   XALPHA      XLATTER      RNUC
  0.70000000  0.00000000  0.00000000 Point Charge
   XN   XL   XJ      XE          XZ      XDELL
  1.0  0.0  0.5    -600.000       2.000     0.00000
  2.0  0.0  0.5     -75.000       2.000     0.00000
  2.0  1.0  0.5     -70.000       2.000     0.00000
  2.0  1.0  1.5     -70.000       4.000     0.00000
  3.0  0.0  0.5     -25.000       2.000     0.00000
  3.0  1.0  0.5      -0.250       2.000     0.00000
  3.0  1.0  1.5      -0.250       1.000     0.00000
 ICORP=  0  NPCL=  0  DEMP=0.00  PEPS=0.000000
 R(1)=  0.1000000E-08 D=  0.1005080E+01 RNUC=  0.0000000E+00
 converged at cycle   47  DENSITY AVERAGING    0.3000
  MAXIMUM ERROR IN R.V(R) IS   0.93255186E-05
 Q,EY,EV,EZ,ESUM,ETOT,RHO  0.150000E+02 -0.290161E+02 -0.536820E+03 -0.814855E+03 -0.194417E+03 -0.340688E+03  0.340722E-13


 DIRAC CALCULATION
1                    PHOSPHORUS ATOM 1s CORE RELATIVISTIC, Point Nuc, A and c from libtc


 EXCHANGE COEFFICIENT=  0.7000000           TAIL CORRECTION=  0.           NUCLEAR RADIUS=  0.000E+00
0                       ORBITAL    N    L    J     ELECTRONS     EIGENVALUE                DELTA OF EIGENV.

                          1S1/2  1.0  0.0  0.5     2.000       -0.7640874E+02                 0.2597240E-06
                          2S1/2  2.0  0.0  0.5     2.000       -0.6353640E+01                 0.3482713E-07
                          2P1/2  2.0  1.0  0.5     2.000       -0.4588256E+01                 0.3010938E-07
                          2P3/2  2.0  1.0  1.5     4.000       -0.4554413E+01                 0.2993762E-07
                          3S1/2  3.0  0.0  0.5     2.000       -0.4844206E+00                 0.1693624E-07
                          3P1/2  3.0  1.0  0.5     2.000       -0.1770291E+00                 0.1234259E-07
                          3P3/2  3.0  1.0  1.5     1.000       -0.1750217E+00                 0.1224459E-07


                                        NUCLEAR CHARGE=   15.000000
                            INTEGRAL OF CHARGE DENSITY=   15.000000
                           SUM OF THE ORBITAL ENERGIES=   -194.4169
                                          TOTAL ENERGY=   -340.6884
                                        KINETIC ENERGY=    342.4034
                             NUCLEAR ATTRACTION ENERGY=   -814.8554
                             ELECTRON REPULSION ENERGY=    153.5256
                                       EXCHANGE ENERGY=    -21.7621

 *******************************************************************************

                             D I R A C   E X I T
 NORMAL TERMINATION



 =================
 Timing Statistics
 =================
  
 Total Used :                     CPU=        0.22      System=        0.00     Elapsed=        0.25

 Calls  Section                     ( Mean, Percentage )
 ---------------------------------------------------------------------------------------------------
     2  ><      ................      0.00    0.00             0.00    0.00             0.00    0.00
     1  EXIT PROCEDURE .........      0.22  100.00             0.00    0.00             0.25  100.00


 Currently Open Files (EXIT00)
 ====================

 Unit    Access Format  Status   Type       Ident (file)
 -------------------------------------------------------
   3      SEQ    FORM   TRANSP  NORMAL      LOGFILE
                                          ( logfile )
 
Create P   file=TZP-P.1s
XC
  GGA PBE
End
relativistic ZORA
Corepotentials t12.rel
End

 *******************************************************************************
 *                                                                             *
 *  -------------------------------------                                      *
 *   Amsterdam Density Functional  (ADF)         2019                          *
 *  -------------------------------------                                      *
 *                                               r74351 2019-04-25             *
 *                                                                             *
 *                                                                             *
 *                              =================                              *
 *                              |               |                              *
 *                              |     A D F     |                              *
 *                              |               |                              *
 *                              =================                              *
 *                                                                             *
 *                                                                             *
 *   Online information and documentation:  https://www.scm.com/support/       *
 *   E-mail:  support@scm.com   info@scm.com                                   *
 *                                                                             *
 *   Scientific publications using ADF results must be properly referenced     *
 *   See the User Manuals (or the web site) for recommended citations          *
 *   The terms and conditions of the End User License Agreement apply to       *
 *   the use of ADF, https://www.scm.com/license-terms/                        *
 *                                                                             *
 **********************  x86_64_linux_intel / intelmpi  ************************
 
  
 ADF 2019  RunTime: Feb10-2023 06:42:34  Nodes: 1  Procs: 1

 Temporary files are created in /scratch/kid_0.517569378

 Phosphorus (TZP, 1s frozen)



 ===========================
 A T T A C H E D   F I L E S
 ===========================
  
 CREATE - Data File:    TZP-P.1s
                        Phosphorus (TZP, 1s frozen)
 Core Potentials:
         file : t12.rel



 ===============================
 M O D E L   P A R A M E T E R S
 ===============================
  
 DENSITY FUNCTIONAL POTENTIAL (scf)
    LDA:                               PW92                                    == Not Default ==
    Gradient Corrections:              PBEc PBEx                               == Not Default ==

 SPIN  (restricted / unrestr.)
    Molecule:                          Restricted                               

 OTHER ASPECTS
    Relativistic Corrections:          scalar (ZORA,MAPA)                      == Not Default ==

    Nuclear Charge Density Model:      Point Charge Nuclei                      
    Core Treatment:                    Frozen Orbital(s)                        

    Hyperfine or Zeeman Interaction:   ---                                      



 =====================================
 S Y M M E T R Y ,   E L E C T R O N S
 =====================================
  
 Symmetry: ATOM

 Irreducible Representations, including subspecies
 -------------------------------------------------
 S
 P:x  P:y  P:z
 D:z2  D:x2-y2  D:xy  D:xz  D:yz
 F:z3  F:z  F:xyz  F:z2x  F:z2y  F:x  F:y


 Configuration of Valence Electrons
 ==================================

          Occupation Numbers
          -------------------------------------------------
 S        2*2
 P        6 3
 D        0
 F        0
          -------------------------------------------------

 Total:   13

 Net Charge: 0 (Nuclei minus Electrons)

 Preset values for MO occupations will be applied through SCF cycle no. 1000000
 Thereafter, the program will assign electrons to MOs that are spatially
 similar to the occupied MOs in a "reference" cycle ("KeepOrbitals").
 The reference cycle is always the PREVIOUS cycle: it will evolve with
 the SCF procedure.



 ================================
 (Slater-type)  F U N C T I O N S  ***  (Basis and Fit)  ***
 ================================
  

 Atom Type    1  (P)
 ==============

 Valence Basis Sets:  12
 -----------------------
   1 S   12.550000
   2 S    5.600000
   2 S    4.050000
   2 P    7.450000
   2 P    4.100000
   3 S    1.300000
   3 S    1.850000
   3 S    2.650000
   3 P    0.850000
   3 P    1.300000
   3 P    2.050000
   3 D    1.900000

 Frozen Core Shells
 ------------------
    S:  1


 BAS: List of all Elementary Cartesian Basis Functions
 =====================================================

 The numbering in the list below (to the right of the function characteristics) is referred
 to in print-outs of MO eigenvectors and Mulliken populations in the BAS representation
 (as contrasted to the SFO representation).

 Notes:
 1. The functions are characterized by a polynomial prefactor (powers of x,y,z and r) and
    an exponential decay factor alpha.
 2. Since the basis sets are specific for an atom TYPE, the individual functions occur on
    all atoms of that type.
 3. The word 'Core' in the left margin signals that it is a Core Function (CF) : not a
    degree of freedom in the valence set, but only used to ensure orthogonalization of
    the other valence basis functions on the frozen Core Orbitals.


 (power of) X  Y  Z  R     Alpha  on Atom
            ==========     =====     ==========

 P                                    1
                                  ---------------------------------------------------------------------------
    Core    0  0  0  0    12.550      1
            0  0  0  1     5.600      2
            0  0  0  1     4.050      3
            1  0  0  0     7.450      4
            0  1  0  0     7.450      5
            0  0  1  0     7.450      6
            1  0  0  0     4.100      7
            0  1  0  0     4.100      8
            0  0  1  0     4.100      9
            0  0  0  2     1.300     10
            0  0  0  2     1.850     11
            0  0  0  2     2.650     12
            1  0  0  1     0.850     13
            0  1  0  1     0.850     14
            0  0  1  1     0.850     15
            1  0  0  1     1.300     16
            0  1  0  1     1.300     17
            0  0  1  1     1.300     18
            1  0  0  1     2.050     19
            0  1  0  1     2.050     20
            0  0  1  1     2.050     21
            2  0  0  0     1.900     22
            1  1  0  0     1.900     23
            1  0  1  0     1.900     24
            0  2  0  0     1.900     25
            0  1  1  0     1.900     26
            0  0  2  0     1.900     27

 Total number of charge fitting functions (nprimf)       106
 Total number of Cartesian basis functions (naos)         27
 Total number of Cartesian core functions  (ncos)          1



 BAS: List of all Elementary Cartesian Basis Functions
 =====================================================

 The numbering in the list below (to the right of the function characteristics) is referred
 to in print-outs of MO eigenvectors and Mulliken populations in the BAS representation
 (as contrasted to the SFO representation).

 Notes:
 1. The functions are characterized by a polynomial prefactor (powers of x,y,z and r) and
    an exponential decay factor alpha.
 2. Since the basis sets are specific for an atom TYPE, the individual functions occur on
    all atoms of that type.
 3. The word 'Core' in the left margin signals that it is a Core Function (CF) : not a
    degree of freedom in the valence set, but only used to ensure orthogonalization of
    the other valence basis functions on the frozen Core Orbitals.


 (power of) X  Y  Z  R     Alpha  on Atom
            ==========     =====     ==========

 P                                    1
                                  ---------------------------------------------------------------------------
    Core    0  0  0  0    12.550      1
            0  0  0  1     5.600      2
            0  0  0  1     4.050      3
            1  0  0  0     7.450      4
            0  1  0  0     7.450      5
            0  0  1  0     7.450      6
            1  0  0  0     4.100      7
            0  1  0  0     4.100      8
            0  0  1  0     4.100      9
            0  0  0  2     1.300     10
            0  0  0  2     1.850     11
            0  0  0  2     2.650     12
            1  0  0  1     0.850     13
            0  1  0  1     0.850     14
            0  0  1  1     0.850     15
            1  0  0  1     1.300     16
            0  1  0  1     1.300     17
            0  0  1  1     1.300     18
            1  0  0  1     2.050     19
            0  1  0  1     2.050     20
            0  0  1  1     2.050     21
            2  0  0  0     1.900     22
            1  1  0  0     1.900     23
            1  0  1  0     1.900     24
            0  2  0  0     1.900     25
            0  1  1  0     1.900     26
            0  0  2  0     1.900     27
1
 ***************************************************************************************************



                                              ***********************
                                              *  T E C H N I C A L  *
                                              ***********************
  



 =============================================================
 P A R A L L E L I Z A T I O N  and  V E C T O R I Z A T I O N
 =============================================================
  
 Nr of parallel processes:                                1
 Maximum vector length in NumInt loops:                 128



 =====================
 S C F   U P D A T E S
 =====================
  
 Max. nr. of cycles:                               300
 Convergence criterion:                              0.0000000100
   secondary criterion:                              0.0000000100

 Mix parameter (when DIIS does not apply):           0.2000000000
 Special mix parameter for the first cycle:          1.0000000000
 Mixed ADIIS+SDIIS will be used                  
    Max number of expansion vectors:                10
    Pure ADIIS when Max([F,P]) is above              0.1000000000
    Pure SDIIS when Max([F,P]) is below              0.0010000000
 Automatic ElectronSmearing (in case of problematic SCF convergence) disabled



 =================
 P R E C I S I O N  ***  (General: NumInt, NeglectFunctionTails, ...)  ***
 =================
  

 NumInt:           Target precision:                12.0000000000
 -------           Initial precision:               10.0000000000
                   Min. precision (optimization):   10.0000000000

 Neglect Functions:          Basis functions:        0.1000000000E-13
 ------------------          Fit functions:          0.1000000000E-13



 ===========================
 L I N E A R   S C A L I N G
 ===========================
  

 Cut-off radii density fit:                        0.1000000000E-97
 Overlap cut-off criterion AO matrix elements:     0.1000000000E-97
 Cut-offs for Coulomb potential and fitted density:0.1000000000E-97
 Cut-off criterion for Coulomb multipole terms:    0.1000000000E-97
 Progressive Convergence parameter:                 0.000000000    
1
 ***************************************************************************************************



                                            ***************************
                                            *  C O M P U T A T I O N  *
                                            ***************************
  

 Number of elements of the density matrix on this node (used, total):       378       378



 ===========================================
 Numerical Integration : Fuzzy Cells (Becke)
 ===========================================
  
 Becke grid quality: VERYGOOD       
  
 Lebedev angular grid order:             min:  13 max:  41
 Nr. of radial points:                   min:  76 max:  76

 Total nr. of points:         76
 Nr. of blocks:                1
 Block length:                76
 Nr. of dummy points:          0


 Test of Precision of the Numerical Integration Grid
 ===================================================

 Integral of the Total Core Density:                   1.99999999908170
 Relative Error:                                      -4.592E-10



 ========================
 Density Fitting (zlmFit)
 ========================
  
 ZlmFit Fit Quality: VERYGOOD       
  
 Max L-expansion:                        min:   0 max:   0
 Nr. of radial interpolation points:     min: 190 max: 190



 =====
 S C F  ***  ScaSCF  ***
 =====
  

 CYCLE    1
 SCF Error: norm([F,P])=      0.000000000000, max([F,P])=      0.000000000000
 orbitals (Q,E):
 ---------------
 S :1...5            ( 2.00   -23.0992)  ( 2.00    -9.8031)  ( 0.00    -5.2886)  ( 0.00    -3.1440)
                     ( 0.00    -1.2993)
 P :1...5            ( 6.00   -22.3278)  ( 3.00    -9.2322)  ( 0.00    -4.8937)  ( 0.00    -3.0142)
                     ( 0.00    -1.9614)
 D :1...1            ( 0.00    -6.4318)

 CYCLE    2
  SDIIS (wt  0.000):  1.0000  0.0000
 A-DIIS (wt  1.000):  0.1145  0.8855
  DIIS coefficients:  0.1145  0.8855
 SCF Error: norm([F,P])=     18.574199763001, max([F,P])=      5.729460424591
 orbitals (Q,E):
 ---------------
 S :1...3            ( 2.00    -4.5689)  ( 2.00    -0.5693)  ( 0.00    -0.0589)
 P :1...3            ( 6.00    -2.5820)  ( 3.00    -0.3376)  ( 0.00    -0.0879)
 D :1...1            ( 0.00     0.3219)

 CYCLE    3
  SDIIS (wt  0.000):  0.2387  0.7613
 A-DIIS (wt  1.000):  0.0000  1.0000
  DIIS coefficients:  0.0000  1.0000
 SCF Error: norm([F,P])=      7.892246338364, max([F,P])=      2.592954182835
 orbitals (Q,E):
 ---------------
 S :1...3            ( 2.00    -8.2146)  ( 2.00    -0.9843)  ( 0.00    -0.0433)
 P :1...3            ( 6.00    -6.5635)  ( 3.00    -0.6019)  ( 0.00    -0.0049)
 D :1...1            ( 0.00    -0.0107)

 CYCLE    4
  SDIIS (wt  0.000): -0.0871  0.2952  0.7919
 A-DIIS (wt  1.000):  0.0000  0.1757  0.8243
  DIIS coefficients:  0.0000  0.1757  0.8243
 SCF Error: norm([F,P])=      4.387176641077, max([F,P])=      1.761626650861
 orbitals (Q,E):
 ---------------
 S :1...3            ( 2.00    -5.8126)  ( 2.00    -0.3504)  ( 0.00     0.1791)
 P :1...3            ( 6.00    -3.9508)  ( 3.00    -0.0835)  ( 0.00     0.1310)
 D :1...1            ( 0.00     0.5508)

 CYCLE    5
  SDIIS (wt  0.000): -0.0109 -0.0602  0.1941  0.8770
 A-DIIS (wt  1.000):  0.0000  0.0000  0.0000  1.0000
  DIIS coefficients:  0.0000  0.0000  0.0000  1.0000
 SCF Error: norm([F,P])=      1.324345584458, max([F,P])=      0.466956153840
 orbitals (Q,E):
 ---------------
 S :1...3            ( 2.00    -6.8907)  ( 2.00    -0.7073)  ( 0.00     0.0342)
 P :1...3            ( 6.00    -5.0922)  ( 3.00    -0.3650)  ( 0.00     0.0330)
 D :1...1            ( 0.00     0.1959)

 CYCLE    6
  SDIIS (wt  0.000):  0.0000 -0.0289 -0.0346  0.4584  0.6050
 A-DIIS (wt  1.000):  0.0000  0.0000  0.0000  0.3111  0.6889
  DIIS coefficients:  0.0000  0.0000  0.0000  0.3111  0.6889
 SCF Error: norm([F,P])=      0.894656609953, max([F,P])=      0.328552344502
 orbitals (Q,E):
 ---------------
 S :1...3            ( 2.00    -6.3109)  ( 2.00    -0.4896)  ( 0.00     0.1210)
 P :1...3            ( 6.00    -4.4823)  ( 3.00    -0.1842)  ( 0.00     0.0870)
 D :1...1            ( 0.00     0.4072)

 CYCLE    7
  SDIIS (wt  0.437):  0.0003 -0.0004 -0.0106 -0.0415  0.1385  0.9137
 A-DIIS (wt  0.563):  0.0000  0.0000  0.0000  0.0000  0.0000  1.0000
  DIIS coefficients:  0.0001 -0.0002 -0.0046 -0.0181  0.0605  0.9623
 SCF Error: norm([F,P])=      0.152753231532, max([F,P])=      0.056768903175
 orbitals (Q,E):
 ---------------
 S :1...3            ( 2.00    -6.4268)  ( 2.00    -0.5264)  ( 0.00     0.1084)
 P :1...3            ( 6.00    -4.6039)  ( 3.00    -0.2126)  ( 0.00     0.0772)
 D :1...1            ( 0.00     0.3702)

 CYCLE    8
  SDIIS (wt  0.777): -0.0000 -0.0007  0.0025  0.0136 -0.0400  0.1180  0.9067
 A-DIIS (wt  0.223):  0.0000  0.0000  0.0000  0.0000  0.0000  0.0410  0.9590
  DIIS coefficients: -0.0000 -0.0005  0.0019  0.0105 -0.0311  0.1008  0.9184
 SCF Error: norm([F,P])=      0.062117061218, max([F,P])=      0.023065151090
 orbitals (Q,E):
 ---------------
 S :1...3            ( 2.00    -6.3871)  ( 2.00    -0.5116)  ( 0.00     0.1144)
 P :1...3            ( 6.00    -4.5623)  ( 3.00    -0.2008)  ( 0.00     0.0809)
 D :1...1            ( 0.00     0.3849)

 CYCLE    9
  SDIIS (wt  0.976):  0.0000  0.0000 -0.0001 -0.0000 -0.0006  0.0067  0.1535  0.8406
 A-DIIS (wt  0.024):  0.0000  0.0000  0.0000  0.0000  0.0000  0.0000  0.0000  1.0000
  DIIS coefficients:  0.0000  0.0000 -0.0001 -0.0000 -0.0006  0.0065  0.1498  0.8445
 SCF Error: norm([F,P])=      0.008957667695, max([F,P])=      0.003406470825
 orbitals (Q,E):
 ---------------
 S :1...3            ( 2.00    -6.3923)  ( 2.00    -0.5136)  ( 0.00     0.1136)
 P :1...3            ( 6.00    -4.5677)  ( 3.00    -0.2024)  ( 0.00     0.0804)
 D :1...1            ( 0.00     0.3830)

 CYCLE   10
  SDIIS (wt  1.000): -0.0000  0.0000 -0.0000 -0.0000  0.0000  0.0002  0.0031  0.0372  0.9595
  DIIS coefficients: -0.0000  0.0000 -0.0000 -0.0000  0.0000  0.0002  0.0031  0.0372  0.9595
 SCF Error: norm([F,P])=      0.000163653333, max([F,P])=      0.000063717608
 orbitals (Q,E):
 ---------------
 S :1...3            ( 2.00    -6.3922)  ( 2.00    -0.5136)  ( 0.00     0.1136)
 P :1...3            ( 6.00    -4.5676)  ( 3.00    -0.2024)  ( 0.00     0.0804)
 D :1...1            ( 0.00     0.3830)

 CYCLE   11
  SDIIS (wt  1.000):  0.0000  0.0000 -0.0000 -0.0002 -0.0016 -0.0226  1.0244
  DIIS coefficients:  0.0000  0.0000 -0.0000 -0.0002 -0.0016 -0.0226  1.0244
 SCF Error: norm([F,P])=      0.000000175567, max([F,P])=      0.000000090743
 orbitals (Q,E):
 ---------------
 S :1...3            ( 2.00    -6.3922)  ( 2.00    -0.5136)  ( 0.00     0.1136)
 P :1...3            ( 6.00    -4.5676)  ( 3.00    -0.2024)  ( 0.00     0.0804)
 D :1...1            ( 0.00     0.3830)

 CYCLE   12
  SDIIS (wt  1.000): -0.0000 -0.0000 -0.0005 -0.0247  1.0252
  DIIS coefficients: -0.0000 -0.0000 -0.0005 -0.0247  1.0252
 SCF Error: norm([F,P])=      0.000000002285, max([F,P])=      0.000000001028
 orbitals (Q,E):
 ---------------
 S :1...3            ( 2.00    -6.3922)  ( 2.00    -0.5136)  ( 0.00     0.1136)
 P :1...3            ( 6.00    -4.5676)  ( 3.00    -0.2024)  ( 0.00     0.0804)
 D :1...1            ( 0.00     0.3830)

 SCF CONVERGED

 CYCLE   13
1
 ***************************************************************************************************



                                                *******************
                                                *  R E S U L T S  *
                                                *******************
  
 *** Using FIT density in Focky
  SDIIS (wt  1.000):  0.0000  0.0017  0.0326  0.9657
  DIIS coefficients:  0.0000  0.0017  0.0326  0.9657
 SCF Error: norm([F,P])=      0.000000000342, max([F,P])=      0.000000000172

 Scaled ZORA Orbital Energies, per Irrep and Spin:
 =================================================
                        Occup              E (au)              E (eV)       Diff (eV) with prev. cycle
                        -----      --------------------        ------       --------------------------
 S
               1        2.000     -0.63922369009056E+01      -173.942               8.75E-09
               2        2.000     -0.51357095789531E+00       -13.975               6.90E-09
               3        0.000      0.11360419341918E+00         3.091
               4        0.000      0.13218598554508E+01        35.970
               5        0.000      0.10430275582036E+02       283.822
 P
               1        6.000     -0.45676340295409E+01      -124.292               8.74E-09
               2        3.000     -0.20235270966723E+00        -5.506               5.88E-09
               3        0.000      0.80400995303665E-01         2.188
               4        0.000      0.71612464912880E+00        19.487
               5        0.000      0.95392466931961E+01       259.576
 D
               1        0.000      0.38299165710671E+00        10.422


 Partially Occupied:
               2 P                -0.20235270966723E+00
  
 HOMO :        2 S                -0.51357095789531E+00
 LUMO :        3 P                 0.80400995303665E-01
  


 Orbital Energies, all Irreps
 ========================================

 Irrep        no.  (spin)   Occup              E (au)                E (eV)
 ---------------------------------------------------------------------------
 S             1             2.00       -0.63922369009056E+01      -173.9416
 P             1             6.00       -0.45676340295409E+01      -124.2916
 S             2             2.00       -0.51357095789531E+00       -13.9750
 P             2             3.00       -0.20235270966723E+00        -5.5063
 P             3             0.00        0.80400995303665E-01         2.1878
 S             3             0.00        0.11360419341918E+00         3.0913
 D             1             0.00        0.38299165710671E+00        10.4217
 P             4             0.00        0.71612464912880E+00        19.4867
 S             4             0.00        0.13218598554508E+01        35.9696
 P             5             0.00        0.95392466931961E+01       259.5761
 S             5             0.00        0.10430275582036E+02       283.8222


 Scaled ZORA Orbital Energies of the Core Orbitals:
 ==================================================

 (Note that the atoms are grouped by atomtype, see the labels, and may hence NOT be in input order)

 AtomType  Orbital  Atom                   E (au)                        E (eV)
 --------  -------  ----           --------------------        ----------------
 P           1S        1          -0.76588588395026E+02               -2084.082



 =======================================
 M U L L I K E N   P O P U L A T I O N S
 =======================================
  
 The survey below gives for each atom:
 a) the total charge (Z minus electrons)
 b) the net spin polarization (nr of electrons spin-A minus spin-B)
 c) for each spin the atomic electron valence density (integrated) per L-value.

 Atom              Charge    Spin density          S         P         D         F
 ----              ------    ------------       ------    ------    ------    ------
 1 P              -0.0000                       4.0000    9.0000    0.0000    0.0000

 Populations of individual BAS functions
 ----------------------------------------
 1 P           -0.0481  1.4990  0.5077  0.7973  0.7973  0.7973  1.2052  1.2052  1.2052  0.3372
                1.0986  0.6057  0.1369  0.1369  0.1369  0.4144  0.4144  0.4144  0.4462  0.4462
                0.4462  0.0000  0.0000  0.0000  0.0000  0.0000  0.0000

 Gross Charges per Atom (Z minus electrons)
 ==========================================
            -0.0000
 Net Total: -0.00000000



 =======================================================================
 Electrostatic potential at the Nuclei due to electrons and other nuclei
 =======================================================================
  
         Atom                  Potential
         ----                  ---------
     1)   P                  54.30955117
 
 
 ========================
 No memory problems found
 ========================
 
 Maximum number of active allocate calls:         389
 
 *******************************************************************************

                             A D F   E X I T
 NORMAL TERMINATION



 =================
 Timing Statistics
 =================
  
 Total Used :                     CPU=        0.53      System=        0.04     Elapsed=        0.61

 Calls  Section                     ( Mean, Percentage )
 ---------------------------------------------------------------------------------------------------
     3  ><      ................      0.00    0.00             0.00    0.00             0.00    0.64
     1  INIT    ................      0.06   12.12             0.00   11.11             0.08   13.69
     1  GEOMET  ................      0.01    1.52             0.01   33.33             0.03    4.26
     1  INPUTA  ................      0.00    0.76             0.00    0.00             0.00    0.55
     1  MAINSY  ................      0.01    1.52             0.00   11.11             0.01    2.24
     1  SYMFIT  ................      0.00    0.00             0.00    0.00             0.00    0.26
     1  CORORT  ................      0.00    0.00             0.00    0.00             0.00    0.23
     1  SYMORB  ................      0.00    0.76             0.00    0.00             0.00    0.14
     1  CLSMAT  ................      0.00    0.76             0.00    0.00             0.01    0.90
     1  ORTHON  ................      0.00    0.76             0.00    0.00             0.01    0.91
     1  GENPT   ................      0.02    3.03             0.00    0.00             0.02    2.73
     1  PTBAS   ................      0.00    0.76             0.00    0.00             0.01    0.86
    13  FOCKY   ................      0.03   64.39             0.00   33.33             0.03   58.46
    13  FOCKTR  ................      0.00    2.27             0.00    0.00             0.00    1.31
    13  SDIIS   ................      0.00    3.79             0.00   11.11             0.00    5.80
     1  COREPS  ................      0.02    4.55             0.00    0.00             0.02    3.64
     1  POPAN   ................      0.00    0.76             0.00    0.00             0.00    0.81
     1  DEBYE   ................      0.00    0.00             0.00    0.00             0.00    0.31
     1  EXIT PROCEDURE .........      0.01    2.27             0.00    0.00             0.01    2.25


 Currently Open Files (EXIT00)
 ====================

 Unit    Access Format  Status   Type       Ident (file)
 -------------------------------------------------------
   3      SEQ    FORM   TRANSP  NORMAL      LOGFILE
                                          ( logfile )

 ***************************************************************************************************
 (LOGFILE)
  Coordinates
    Atom         X           Y           Z   (Angstrom)
    1.P         0.000000    0.000000    0.000000

 *******************************************************************************
 *                                                                             *
 *  -------------------------------------                                      *
 *   Amsterdam Density Functional  (ADF)         2019                          *
 *  -------------------------------------                                      *
 *                                               r74351 2019-04-25             *
 *                                                                             *
 *                                                                             *
 *                            =====================                            *
 *                            |                   |                            *
 *                            |     D I R A C     |                            *
 *                            |                   |                            *
 *                            =====================                            *
 *                                                                             *
 *                                                                             *
 *   Online information and documentation:  https://www.scm.com/support/       *
 *   E-mail:  support@scm.com   info@scm.com                                   *
 *                                                                             *
 *   Scientific publications using ADF results must be properly referenced     *
 *   See the User Manuals (or the web site) for recommended citations          *
 *   The terms and conditions of the End User License Agreement apply to       *
 *   the use of ADF, https://www.scm.com/license-terms/                        *
 *                                                                             *
 **********************  x86_64_linux_intel / intelmpi  ************************
 
  
 DIRAC 2019  RunTime: Feb10-2023 06:42:35  Nodes: 1  Procs: 1

 Temporary files are created in /scratch/kid_0.883801870

1
 OXYGEN ATOM 1s CORE RELATIVISTIC, Point Nuc, A and c from li
 N J RN H ZN XION ANUC CLIGHT
 5000    4100.00000000197.36710137  8.00000000  0.00000000   15.994914  0.1370360E+03
  PH   PHI     EPS        DEL        DELRVR
  0.30  0.30     2500.00  0.00001000  0.00001000
 IDIRC  NC1  NDEBU NPRIN  IPUN IRCOR IWCOR
   1   300     0     0     0     0     1
   XALPHA      XLATTER      RNUC
  0.70000000  0.00000000  0.00000000 Point Charge
   XN   XL   XJ      XE          XZ      XDELL
  1.0  0.0  0.5      -5.000       2.000     0.00000
  2.0  0.0  0.5      -1.000       2.000     0.00000
  2.0  1.0  0.5      -1.000       2.000     0.00000
  2.0  1.0  1.5      -1.000       2.000     0.00000
 ICORP=  0  NPCL=  0  DEMP=0.00  PEPS=0.000000
 R(1)=  0.1000000E-08 D=  0.1005080E+01 RNUC=  0.0000000E+00
 converged at cycle   28  DENSITY AVERAGING    0.2400
  MAXIMUM ERROR IN R.V(R) IS   0.81125670E-05
 Q,EY,EV,EZ,ESUM,ETOT,RHO  0.800000E+01 -0.101247E+02 -0.114961E+03 -0.177573E+03 -0.405053E+02 -0.743427E+02  0.414766E-14


 DIRAC CALCULATION
1                    OXYGEN ATOM 1s CORE RELATIVISTIC, Point Nuc, A and c from libtc


 EXCHANGE COEFFICIENT=  0.7000000           TAIL CORRECTION=  0.           NUCLEAR RADIUS=  0.000E+00
0                       ORBITAL    N    L    J     ELECTRONS     EIGENVALUE                DELTA OF EIGENV.

                          1S1/2  1.0  0.0  0.5     2.000       -0.1880014E+02                 0.7264358E-06
                          2S1/2  2.0  0.0  0.5     2.000       -0.8412236E+00                 0.5932752E-05
                          2P1/2  2.0  1.0  0.5     2.000       -0.3063203E+00                 0.5998471E-05
                          2P3/2  2.0  1.0  1.5     2.000       -0.3049609E+00                 0.5986971E-05


                                        NUCLEAR CHARGE=    8.000000
                            INTEGRAL OF CHARGE DENSITY=    8.000000
                           SUM OF THE ORBITAL ENERGIES=    -40.5053
                                          TOTAL ENERGY=    -74.3427
                                        KINETIC ENERGY=     74.4552
                             NUCLEAR ATTRACTION ENERGY=   -177.5730
                             ELECTRON REPULSION ENERGY=     36.3686
                                       EXCHANGE ENERGY=     -7.5935

 *******************************************************************************

                             D I R A C   E X I T
 NORMAL TERMINATION



 =================
 Timing Statistics
 =================
  
 Total Used :                     CPU=        0.10      System=        0.00     Elapsed=        0.12

 Calls  Section                     ( Mean, Percentage )
 ---------------------------------------------------------------------------------------------------
     2  ><      ................      0.00    0.00             0.00    0.00             0.00    0.01
     1  EXIT PROCEDURE .........      0.10  100.00             0.00  100.00             0.12   99.99


 Currently Open Files (EXIT00)
 ====================

 Unit    Access Format  Status   Type       Ident (file)
 -------------------------------------------------------
   3      SEQ    FORM   TRANSP  NORMAL      LOGFILE
                                          ( logfile )
 
Create O   file=TZP-O.1s
XC
  GGA PBE
End
relativistic ZORA
Corepotentials t12.rel
End

 *******************************************************************************
 *                                                                             *
 *  -------------------------------------                                      *
 *   Amsterdam Density Functional  (ADF)         2019                          *
 *  -------------------------------------                                      *
 *                                               r74351 2019-04-25             *
 *                                                                             *
 *                                                                             *
 *                              =================                              *
 *                              |               |                              *
 *                              |     A D F     |                              *
 *                              |               |                              *
 *                              =================                              *
 *                                                                             *
 *                                                                             *
 *   Online information and documentation:  https://www.scm.com/support/       *
 *   E-mail:  support@scm.com   info@scm.com                                   *
 *                                                                             *
 *   Scientific publications using ADF results must be properly referenced     *
 *   See the User Manuals (or the web site) for recommended citations          *
 *   The terms and conditions of the End User License Agreement apply to       *
 *   the use of ADF, https://www.scm.com/license-terms/                        *
 *                                                                             *
 **********************  x86_64_linux_intel / intelmpi  ************************
 
  
 ADF 2019  RunTime: Feb10-2023 06:42:35  Nodes: 1  Procs: 1

 Temporary files are created in /scratch/kid_0.1559719949

 Oxygen (TZP, 1s frozen)



 ===========================
 A T T A C H E D   F I L E S
 ===========================
  
 CREATE - Data File:    TZP-O.1s
                        Oxygen (TZP, 1s frozen)
 Core Potentials:
         file : t12.rel



 ===============================
 M O D E L   P A R A M E T E R S
 ===============================
  
 DENSITY FUNCTIONAL POTENTIAL (scf)
    LDA:                               PW92                                    == Not Default ==
    Gradient Corrections:              PBEc PBEx                               == Not Default ==

 SPIN  (restricted / unrestr.)
    Molecule:                          Restricted                               

 OTHER ASPECTS
    Relativistic Corrections:          scalar (ZORA,MAPA)                      == Not Default ==

    Nuclear Charge Density Model:      Point Charge Nuclei                      
    Core Treatment:                    Frozen Orbital(s)                        

    Hyperfine or Zeeman Interaction:   ---                                      



 =====================================
 S Y M M E T R Y ,   E L E C T R O N S
 =====================================
  
 Symmetry: ATOM

 Irreducible Representations, including subspecies
 -------------------------------------------------
 S
 P:x  P:y  P:z
 D:z2  D:x2-y2  D:xy  D:xz  D:yz
 F:z3  F:z  F:xyz  F:z2x  F:z2y  F:x  F:y


 Configuration of Valence Electrons
 ==================================

          Occupation Numbers
          -------------------------------------------------
 S        2
 P        4
 D        0
 F        0
          -------------------------------------------------

 Total:   6

 Net Charge: 0 (Nuclei minus Electrons)

 Preset values for MO occupations will be applied through SCF cycle no. 1000000
 Thereafter, the program will assign electrons to MOs that are spatially
 similar to the occupied MOs in a "reference" cycle ("KeepOrbitals").
 The reference cycle is always the PREVIOUS cycle: it will evolve with
 the SCF procedure.



 ================================
 (Slater-type)  F U N C T I O N S  ***  (Basis and Fit)  ***
 ================================
  

 Atom Type    1  (O)
 ==============

 Valence Basis Sets:   8
 -----------------------
   1 S    7.360000
   2 S    1.720000
   2 S    2.880000
   2 S    7.580000
   2 P    1.120000
   2 P    2.080000
   2 P    4.080000
   3 D    2.000000

 Frozen Core Shells
 ------------------
    S:  1


 BAS: List of all Elementary Cartesian Basis Functions
 =====================================================

 The numbering in the list below (to the right of the function characteristics) is referred
 to in print-outs of MO eigenvectors and Mulliken populations in the BAS representation
 (as contrasted to the SFO representation).

 Notes:
 1. The functions are characterized by a polynomial prefactor (powers of x,y,z and r) and
    an exponential decay factor alpha.
 2. Since the basis sets are specific for an atom TYPE, the individual functions occur on
    all atoms of that type.
 3. The word 'Core' in the left margin signals that it is a Core Function (CF) : not a
    degree of freedom in the valence set, but only used to ensure orthogonalization of
    the other valence basis functions on the frozen Core Orbitals.


 (power of) X  Y  Z  R     Alpha  on Atom
            ==========     =====     ==========

 O                                    1
                                  ---------------------------------------------------------------------------
    Core    0  0  0  0     7.360      1
            0  0  0  1     1.720      2
            0  0  0  1     2.880      3
            0  0  0  1     7.580      4
            1  0  0  0     1.120      5
            0  1  0  0     1.120      6
            0  0  1  0     1.120      7
            1  0  0  0     2.080      8
            0  1  0  0     2.080      9
            0  0  1  0     2.080     10
            1  0  0  0     4.080     11
            0  1  0  0     4.080     12
            0  0  1  0     4.080     13
            2  0  0  0     2.000     14
            1  1  0  0     2.000     15
            1  0  1  0     2.000     16
            0  2  0  0     2.000     17
            0  1  1  0     2.000     18
            0  0  2  0     2.000     19

 Total number of charge fitting functions (nprimf)        82
 Total number of Cartesian basis functions (naos)         19
 Total number of Cartesian core functions  (ncos)          1



 BAS: List of all Elementary Cartesian Basis Functions
 =====================================================

 The numbering in the list below (to the right of the function characteristics) is referred
 to in print-outs of MO eigenvectors and Mulliken populations in the BAS representation
 (as contrasted to the SFO representation).

 Notes:
 1. The functions are characterized by a polynomial prefactor (powers of x,y,z and r) and
    an exponential decay factor alpha.
 2. Since the basis sets are specific for an atom TYPE, the individual functions occur on
    all atoms of that type.
 3. The word 'Core' in the left margin signals that it is a Core Function (CF) : not a
    degree of freedom in the valence set, but only used to ensure orthogonalization of
    the other valence basis functions on the frozen Core Orbitals.


 (power of) X  Y  Z  R     Alpha  on Atom
            ==========     =====     ==========

 O                                    1
                                  ---------------------------------------------------------------------------
    Core    0  0  0  0     7.360      1
            0  0  0  1     1.720      2
            0  0  0  1     2.880      3
            0  0  0  1     7.580      4
            1  0  0  0     1.120      5
            0  1  0  0     1.120      6
            0  0  1  0     1.120      7
            1  0  0  0     2.080      8
            0  1  0  0     2.080      9
            0  0  1  0     2.080     10
            1  0  0  0     4.080     11
            0  1  0  0     4.080     12
            0  0  1  0     4.080     13
            2  0  0  0     2.000     14
            1  1  0  0     2.000     15
            1  0  1  0     2.000     16
            0  2  0  0     2.000     17
            0  1  1  0     2.000     18
            0  0  2  0     2.000     19
1
 ***************************************************************************************************



                                              ***********************
                                              *  T E C H N I C A L  *
                                              ***********************
  



 =============================================================
 P A R A L L E L I Z A T I O N  and  V E C T O R I Z A T I O N
 =============================================================
  
 Nr of parallel processes:                                1
 Maximum vector length in NumInt loops:                 128



 =====================
 S C F   U P D A T E S
 =====================
  
 Max. nr. of cycles:                               300
 Convergence criterion:                              0.0000000100
   secondary criterion:                              0.0000000100

 Mix parameter (when DIIS does not apply):           0.2000000000
 Special mix parameter for the first cycle:          1.0000000000
 Mixed ADIIS+SDIIS will be used                  
    Max number of expansion vectors:                10
    Pure ADIIS when Max([F,P]) is above              0.1000000000
    Pure SDIIS when Max([F,P]) is below              0.0010000000
 Automatic ElectronSmearing (in case of problematic SCF convergence) disabled



 =================
 P R E C I S I O N  ***  (General: NumInt, NeglectFunctionTails, ...)  ***
 =================
  

 NumInt:           Target precision:                12.0000000000
 -------           Initial precision:               10.0000000000
                   Min. precision (optimization):   10.0000000000

 Neglect Functions:          Basis functions:        0.1000000000E-13
 ------------------          Fit functions:          0.1000000000E-13



 ===========================
 L I N E A R   S C A L I N G
 ===========================
  

 Cut-off radii density fit:                        0.1000000000E-97
 Overlap cut-off criterion AO matrix elements:     0.1000000000E-97
 Cut-offs for Coulomb potential and fitted density:0.1000000000E-97
 Cut-off criterion for Coulomb multipole terms:    0.1000000000E-97
 Progressive Convergence parameter:                 0.000000000    
1
 ***************************************************************************************************



                                            ***************************
                                            *  C O M P U T A T I O N  *
                                            ***************************
  

 Number of elements of the density matrix on this node (used, total):       190       190



 ===========================================
 Numerical Integration : Fuzzy Cells (Becke)
 ===========================================
  
 Becke grid quality: VERYGOOD       
  
 Lebedev angular grid order:             min:  13 max:  41
 Nr. of radial points:                   min:  68 max:  68

 Total nr. of points:         68
 Nr. of blocks:                1
 Block length:                68
 Nr. of dummy points:          0


 Test of Precision of the Numerical Integration Grid
 ===================================================

 Integral of the Total Core Density:                   1.99999999865610
 Relative Error:                                      -6.720E-10



 ========================
 Density Fitting (zlmFit)
 ========================
  
 ZlmFit Fit Quality: VERYGOOD       
  
 Max L-expansion:                        min:   0 max:   0
 Nr. of radial interpolation points:     min: 140 max: 140



 =====
 S C F  ***  ScaSCF  ***
 =====
  

 CYCLE    1
 SCF Error: norm([F,P])=      0.000000000000, max([F,P])=      0.000000000000
 orbitals (Q,E):
 ---------------
 S :1...3            ( 2.00    -5.3654)  ( 0.00    -2.2073)  ( 0.00    23.6692)
 P :1...3            ( 4.00    -5.0045)  ( 0.00    -2.0150)  ( 0.00    -0.3846)
 D :1...1            ( 0.00    -2.0410)

 CYCLE    2
 SCF Error: norm([F,P])=      4.562993374873, max([F,P])=      2.528971113813
 orbitals (Q,E):
 ---------------
 S :1...2            ( 2.00    -0.1548)  ( 0.00     1.6948)
 P :1...2            ( 4.00     0.1773)  ( 0.00     0.9552)
 D :1...1            ( 0.00     1.4649)

 CYCLE    3
  SDIIS (wt  0.000):  0.3378  0.6622
 A-DIIS (wt  1.000):  0.4814  0.5186
  DIIS coefficients:  0.4814  0.5186
 SCF Error: norm([F,P])=      2.723155250500, max([F,P])=      1.798667049295
 orbitals (Q,E):
 ---------------
 S :1...2            ( 2.00    -1.1093)  ( 0.00     0.7549)
 P :1...2            ( 4.00    -0.5518)  ( 0.00     0.2590)
 D :1...1            ( 0.00     0.8910)

 CYCLE    4
  SDIIS (wt  0.000):  0.0919  0.9081
 A-DIIS (wt  1.000):  0.0000  1.0000
  DIIS coefficients:  0.0000  1.0000
 SCF Error: norm([F,P])=      0.289027138405, max([F,P])=      0.130648623511
 orbitals (Q,E):
 ---------------
 S :1...2            ( 2.00    -0.7707)  ( 0.00     0.9912)
 P :1...2            ( 4.00    -0.2284)  ( 0.00     0.4046)
 D :1...1            ( 0.00     1.1288)

 CYCLE    5
  SDIIS (wt  0.000):  0.0260  0.6740  0.3001
 A-DIIS (wt  1.000):  0.0000  0.5764  0.4236
  DIIS coefficients:  0.0000  0.5764  0.4236
 SCF Error: norm([F,P])=      0.416615089426, max([F,P])=      0.232643669786
 orbitals (Q,E):
 ---------------
 S :1...2            ( 2.00    -0.8764)  ( 0.00     0.9107)
 P :1...2            ( 4.00    -0.3280)  ( 0.00     0.3557)
 D :1...1            ( 0.00     1.0703)

 CYCLE    6
  SDIIS (wt  0.942):  0.0005  0.0237 -0.0203  0.9960
 A-DIIS (wt  0.058):  0.0000  0.0000  0.0000  1.0000
  DIIS coefficients:  0.0005  0.0224 -0.0191  0.9962
 SCF Error: norm([F,P])=      0.013723272809, max([F,P])=      0.006719036732
 orbitals (Q,E):
 ---------------
 S :1...2            ( 2.00    -0.8830)  ( 0.00     0.9058)
 P :1...2            ( 4.00    -0.3343)  ( 0.00     0.3521)
 D :1...1            ( 0.00     1.0657)

 CYCLE    7
  SDIIS (wt  1.000): -0.0000  0.0016  0.0023  0.0424  0.9537
  DIIS coefficients: -0.0000  0.0016  0.0023  0.0424  0.9537
 SCF Error: norm([F,P])=      0.001103645928, max([F,P])=      0.000634039171
 orbitals (Q,E):
 ---------------
 S :1...2            ( 2.00    -0.8827)  ( 0.00     0.9060)
 P :1...2            ( 4.00    -0.3340)  ( 0.00     0.3523)
 D :1...1            ( 0.00     1.0659)

 CYCLE    8
  SDIIS (wt  1.000): -0.0000 -0.0001  0.0000 -0.0032  0.0268  0.9765
  DIIS coefficients: -0.0000 -0.0001  0.0000 -0.0032  0.0268  0.9765
 SCF Error: norm([F,P])=      0.000035919805, max([F,P])=      0.000020263970
 orbitals (Q,E):
 ---------------
 S :1...2            ( 2.00    -0.8827)  ( 0.00     0.9060)
 P :1...2            ( 4.00    -0.3340)  ( 0.00     0.3522)
 D :1...1            ( 0.00     1.0659)

 CYCLE    9
  SDIIS (wt  1.000): -0.0000  0.0008  0.0188  0.9804
  DIIS coefficients: -0.0000  0.0008  0.0188  0.9804
 SCF Error: norm([F,P])=      0.000000326384, max([F,P])=      0.000000183924
 orbitals (Q,E):
 ---------------
 S :1...2            ( 2.00    -0.8827)  ( 0.00     0.9060)
 P :1...2            ( 4.00    -0.3340)  ( 0.00     0.3522)
 D :1...1            ( 0.00     1.0659)

 CYCLE   10
  SDIIS (wt  1.000):  0.0000  0.0003  0.9996
  DIIS coefficients:  0.0000  0.0003  0.9996
 SCF Error: norm([F,P])=      0.000000000559, max([F,P])=      0.000000000306
 orbitals (Q,E):
 ---------------
 S :1...2            ( 2.00    -0.8827)  ( 0.00     0.9060)
 P :1...2            ( 4.00    -0.3340)  ( 0.00     0.3522)
 D :1...1            ( 0.00     1.0659)

 SCF CONVERGED

 CYCLE   11
1
 ***************************************************************************************************



                                                *******************
                                                *  R E S U L T S  *
                                                *******************
  
 *** Using FIT density in Focky
  SDIIS (wt  1.000): -0.0000  0.0143  0.9857
  DIIS coefficients: -0.0000  0.0143  0.9857
 SCF Error: norm([F,P])=      0.000000000010, max([F,P])=      0.000000000006

 Scaled ZORA Orbital Energies, per Irrep and Spin:
 =================================================
                        Occup              E (au)              E (eV)       Diff (eV) with prev. cycle
                        -----      --------------------        ------       --------------------------
 S
               1        2.000     -0.88272313143209E+00       -24.020              -9.28E-11
               2        0.000      0.90601345014671E+00        24.654
               3        0.000      0.29578810816937E+02       804.880
 P
               1        4.000     -0.33400585272070E+00        -9.089              -8.94E-11
               2        0.000      0.35224911365993E+00         9.585
               3        0.000      0.38342927625315E+01       104.336
 D
               1        0.000      0.10658965783141E+01        29.005


 Partially Occupied:
               1 P                -0.33400585272070E+00
  
 HOMO :        1 S                -0.88272313143209E+00
 LUMO :        2 P                 0.35224911365993E+00
  


 Orbital Energies, all Irreps
 ========================================

 Irrep        no.  (spin)   Occup              E (au)                E (eV)
 ---------------------------------------------------------------------------
 S             1             2.00       -0.88272313143209E+00       -24.0201
 P             1             4.00       -0.33400585272070E+00        -9.0888
 P             2             0.00        0.35224911365993E+00         9.5852
 S             2             0.00        0.90601345014671E+00        24.6539
 D             1             0.00        0.10658965783141E+01        29.0045
 P             3             0.00        0.38342927625315E+01       104.3364
 S             3             0.00        0.29578810816937E+02       804.8804


 Scaled ZORA Orbital Energies of the Core Orbitals:
 ==================================================

 (Note that the atoms are grouped by atomtype, see the labels, and may hence NOT be in input order)

 AtomType  Orbital  Atom                   E (au)                        E (eV)
 --------  -------  ----           --------------------        ----------------
 O           1S        1          -0.18925919758629E+02                -515.000



 =======================================
 M U L L I K E N   P O P U L A T I O N S
 =======================================
  
 The survey below gives for each atom:
 a) the total charge (Z minus electrons)
 b) the net spin polarization (nr of electrons spin-A minus spin-B)
 c) for each spin the atomic electron valence density (integrated) per L-value.

 Atom              Charge    Spin density          S         P         D         F
 ----              ------    ------------       ------    ------    ------    ------
 1 O              -0.0000                       2.0000    4.0000    0.0000    0.0000

 Populations of individual BAS functions
 ----------------------------------------
 1 O            0.0005  0.9226  1.0966 -0.0196  0.3346  0.3346  0.3346  0.7512  0.7512  0.7512
                0.2476  0.2476  0.2476  0.0000  0.0000  0.0000  0.0000  0.0000  0.0000

 Gross Charges per Atom (Z minus electrons)
 ==========================================
            -0.0000
 Net Total: -0.00000000



 =======================================================================
 Electrostatic potential at the Nuclei due to electrons and other nuclei
 =======================================================================
  
         Atom                  Potential
         ----                  ---------
     1)   O                  22.20265662
 
 
 ========================
 No memory problems found
 ========================
 
 Maximum number of active allocate calls:         389
 
 *******************************************************************************

                             A D F   E X I T
 NORMAL TERMINATION



 =================
 Timing Statistics
 =================
  
 Total Used :                     CPU=        0.42      System=        0.02     Elapsed=        0.48

 Calls  Section                     ( Mean, Percentage )
 ---------------------------------------------------------------------------------------------------
     3  ><      ................      0.00    0.94             0.00    0.00             0.00    0.91
     1  INIT    ................      0.06   15.09             0.00   25.00             0.08   17.15
     1  GEOMET  ................      0.02    3.77             0.00   25.00             0.03    5.50
     1  INPUTA  ................      0.00    0.94             0.00    0.00             0.00    0.70
     1  MAINSY  ................      0.01    1.89             0.00    0.00             0.01    2.86
     1  SYMFIT  ................      0.00    0.00             0.00    0.00             0.00    0.33
     1  CORORT  ................      0.00    0.94             0.00    0.00             0.00    0.32
     1  SYMORB  ................      0.00    0.00             0.00    0.00             0.00    0.17
     1  CLSMAT  ................      0.00    0.94             0.00    0.00             0.01    1.10
     1  ORTHON  ................      0.00    0.94             0.00    0.00             0.01    1.09
     1  GENPT   ................      0.02    3.77             0.00    0.00             0.01    2.96
     1  PTBAS   ................      0.00    0.94             0.00    0.00             0.01    1.06
    11  FOCKY   ................      0.02   53.77             0.00   50.00             0.02   50.70
    11  FOCKTR  ................      0.00    1.89             0.00    0.00             0.00    1.36
    11  SDIIS   ................      0.00    6.60             0.00    0.00             0.00    6.04
     1  COREPS  ................      0.02    3.77             0.00    0.00             0.02    3.59
     1  POPAN   ................      0.00    0.94             0.00    0.00             0.00    1.01
     1  DEBYE   ................      0.00    0.00             0.00    0.00             0.00    0.41
     1  EXIT PROCEDURE .........      0.01    2.83             0.00    0.00             0.01    2.74


 Currently Open Files (EXIT00)
 ====================

 Unit    Access Format  Status   Type       Ident (file)
 -------------------------------------------------------
   3      SEQ    FORM   TRANSP  NORMAL      LOGFILE
                                          ( logfile )

 ***************************************************************************************************
 (LOGFILE)
  Coordinates
    Atom         X           Y           Z   (Angstrom)
    1.P         0.000000    0.000000    0.000000
  Coordinates
    Atom         X           Y           Z   (Angstrom)
    1.O         0.000000    0.000000    0.000000


 Parallel Execution: Process Information
 ==============================================================================
 Rank   Node Name                              NodeID   MyNodeRank  NodeMaster
    0   kimik2217                                 0          0          0
    1   kimik2217                                 0          1         -1
    2   kimik2217                                 0          2         -1
    3   kimik2217                                 0          3         -1
    4   kimik2217                                 0          4         -1
    5   kimik2217                                 0          5         -1
    6   kimik2217                                 0          6         -1
    7   kimik2217                                 0          7         -1
    8   kimik2217                                 0          8         -1
    9   kimik2217                                 0          9         -1
   10   kimik2217                                 0         10         -1
   11   kimik2217                                 0         11         -1
   12   kimik2217                                 0         12         -1
   13   kimik2217                                 0         13         -1
   14   kimik2217                                 0         14         -1
   15   kimik2217                                 0         15         -1
   16   kimik2217                                 0         16         -1
   17   kimik2217                                 0         17         -1
   18   kimik2217                                 0         18         -1
   19   kimik2217                                 0         19         -1
   20   kimik2217                                 0         20         -1
   21   kimik2217                                 0         21         -1
   22   kimik2217                                 0         22         -1
   23   kimik2217                                 0         23         -1
   24   kimik2217                                 0         24         -1
   25   kimik2217                                 0         25         -1
   26   kimik2217                                 0         26         -1
   27   kimik2217                                 0         27         -1
 ==============================================================================


May use up to 61376MB of RAM as shared memory on node 0
 
AnalyticalFreq
end

NumericalQuality Good

QTAIM
    Enabled Yes
End

Relativistic Scalar ZORA

SOLVATION
  Surf Delley
  Solv name=Water cav0=0.0 cav1=0.0067639
  Charged method=CONJ
  C-Mat POT
  SCF VAR ALL
  CSMRSP
  Radii
    H=1.30
    O=1.72
    Mo=1.992
    Si=2.48
    W=1.992
    P=2.13
  SubEnd
end

ScanFreq -1000 0

XC
  GGA PBE
end

atoms
      1         P     -0.382596      0.232299      0.957004
      2         O      0.555735      1.517770      1.529315
      3         O      0.669586     -1.001106      0.272003
      4         O     -1.271354     -0.429641      2.234745
      5         O     -1.443470      0.793976     -0.234481
end

charge -3

geometry
end

Fragments
P t21.P
O t21.O
End

 *******************************************************************************
 *                                                                             *
 *  -------------------------------------                                      *
 *   Amsterdam Density Functional  (ADF)         2019                          *
 *  -------------------------------------                                      *
 *                                               r74351 2019-04-25             *
 *                                                                             *
 *                                                                             *
 *                              =================                              *
 *                              |               |                              *
 *                              |     A D F     |                              *
 *                              |               |                              *
 *                              =================                              *
 *                                                                             *
 *                                                                             *
 *   Online information and documentation:  https://www.scm.com/support/       *
 *   E-mail:  support@scm.com   info@scm.com                                   *
 *                                                                             *
 *   Scientific publications using ADF results must be properly referenced     *
 *   See the User Manuals (or the web site) for recommended citations          *
 *   The terms and conditions of the End User License Agreement apply to       *
 *   the use of ADF, https://www.scm.com/license-terms/                        *
 *                                                                             *
 **********************  x86_64_linux_intel / intelmpi  ************************
 
  
 ADF 2019  RunTime: Feb10-2023 06:42:36  Nodes: 1  Procs: 28

 Temporary files are created in /scratch/kid_0.1082250513


Communication costs MPI_COMM_WORLD:      1.785 usec per message,   0.0130 usec per 8-byte item
Communication costs for intra-node:      1.679 usec per message,   0.0130 usec per 8-byte item

 *** (NO TITLE) ***



 ===========================
 A T T A C H E D   F I L E S
 ===========================
  



 ===============================
 M O D E L   P A R A M E T E R S
 ===============================
  
 DENSITY FUNCTIONAL POTENTIAL (scf)
    LDA:                               PW92                                    == Not Default ==
    Gradient Corrections:              PBEc PBEx                               == Not Default ==

 SPIN  (restricted / unrestr.)
    Molecule:                          Restricted                               
    Fragments:                         Restricted                               

 OTHER ASPECTS
    Relativistic Corrections:          scalar (ZORA,MAPA)                      == Not Default ==

    Nuclear Charge Density Model:      Point Charge Nuclei                      
    Core Treatment:                    Frozen Orbital(s)                        

    Hyperfine or Zeeman Interaction:   ---                                      

 SOLVATION
-------------------------------------------

  The Delley construction of COSMO surface surface is calculated

       Division Level for Surface Triangles (NDIV)                  3
       Final Division Level for Triangles (NFDIV)                   1
       Radius of the Solvent (RSOL)                           1.93000 angstr
  Dielectric Constant (EPSL)                                 78.39000

       COSMO equation is solved iteratively-               conjugate-gradient

       Maximun of Iterations for Charges (NCIX)                  1000
       Criterion for Charge convergence (CCNV)                1.0E-08

  COSMO charges included variationally in SCF

       COSMO included at every SCF cycle

  Geometry-dependent empirical factor                         0.00000

  C-Matrix calculated in cspmtx

  In cspmtx, C-Matrix calculated using fitted potential

-------------------------------------------



 Fragment File(s)
 ----------------
 P:
         file : t21.P
         jobid: ADF 2019  RunTime: Feb10-2023 06:42:34  Nodes: 1  Procs: 1
         title: Phosphorus (TZP, 1s frozen)
 O:
         file : t21.O
         jobid: ADF 2019  RunTime: Feb10-2023 06:42:35  Nodes: 1  Procs: 1
         title: Oxygen (TZP, 1s frozen)



                                   *********************************************
                                   *  R U N   T Y P E : GEOMETRY OPTIMIZATION  *
                                   *********************************************
  



 ===============
 G E O M E T R Y  ***  3D  Molecule  ***
 ===============
  

 ATOMS
 =====                            X Y Z                    CHARGE                     RADIUS
                                (Angstrom)             Nucl     +Core       At.Mass (Angstrom)
                       --------------------------    ----------------       ------- ----------
    1  P               0.0000    0.0000    0.7639     15.00     13.00       30.9738    2.1300
    2  O               0.7973    1.3809    1.3278      8.00      6.00       15.9949    1.7200
    3  O               0.0000    0.0000   -0.9961      8.00      6.00       15.9949    1.7200
    4  O               0.7973   -1.3809    1.3278      8.00      6.00       15.9949    1.7200
    5  O              -1.5946    0.0000    1.3278      8.00      6.00       15.9949    1.7200


 FRAGMENTS
 =========                                     Atoms in this Fragment     Cart. coord.s (Angstrom)
                                               -------------------------------------------------------
    1  P                                                 1  P            0.0000    0.0000    0.7639
    2  O                                                 2  O            0.7973    1.3809    1.3278
    3  O                                                 3  O            0.0000    0.0000   -0.9961
    4  O                                                 4  O            0.7973   -1.3809    1.3278
    5  O                                                 5  O           -1.5946    0.0000    1.3278


 Interatomic Distance Matrix (Angstrom)
 --------------------------------------

   1)     0.000
   2)     1.691   0.000
   3)     1.760   2.818   0.000
   4)     1.691   2.762   2.818   0.000
   5)     1.691   2.762   2.818   2.762   0.000

 Min. Distance =    1.6913
 Max. Distance =    2.8183



 =====================================
 S Y M M E T R Y ,   E L E C T R O N S
 =====================================
  
 Symmetry: C(3V)

 Irreducible Representations, including subspecies
 -------------------------------------------------
 A1
 A2
 E1:1  E1:2


 Configuration of Valence Electrons
 ==================================
 ( determined in the SCF procedure )

 Total:   40

 Net Charge: -3 (Nuclei minus Electrons)

 Aufbau principle for MO occupations will be applied through SCF cycle no.     150
 Thereafter, the program will assign electrons to MOs that are spatially
 similar to the occupied MOs in a "reference" cycle ("KeepOrbitals").
 The reference cycle is always the PREVIOUS cycle: it will evolve with
 the SCF procedure.
1
 ***************************************************************************************************



                                      ****************************************
                                      *  B U I L D : (Fragments, Functions)  *
                                      ****************************************
  

 Total nr. of (C)SFOs (summation over all irreps) :    93

 Specify PRINT SFO in the input file to get a full list

 Nr. of SFOs for ir.rep.          A1 :    30
 Nr. of SFOs for ir.rep.          A2 :     5
 Nr. of SFOs for ir.rep.        E1:1 :    29
 Nr. of SFOs for ir.rep.        E1:2 :    29



 ================================
 (Slater-type)  F U N C T I O N S  ***  (Basis and Fit)  ***
 ================================
  

 Atom Type    1  (P)
 ==============

 Valence Basis Sets:  12
 -----------------------
   1 S   12.550000
   2 S    5.600000
   2 S    4.050000
   2 P    7.450000
   2 P    4.100000
   3 S    1.300000
   3 S    1.850000
   3 S    2.650000
   3 P    0.850000
   3 P    1.300000
   3 P    2.050000
   3 D    1.900000

 Frozen Core Shells
 ------------------
    S:  1

 Atom Type    2  (O)
 ==============

 Valence Basis Sets:   8
 -----------------------
   1 S    7.360000
   2 S    1.720000
   2 S    2.880000
   2 S    7.580000
   2 P    1.120000
   2 P    2.080000
   2 P    4.080000
   3 D    2.000000

 Frozen Core Shells
 ------------------
    S:  1


 BAS: List of all Elementary Cartesian Basis Functions
 =====================================================

 The numbering in the list below (to the right of the function characteristics) is referred
 to in print-outs of MO eigenvectors and Mulliken populations in the BAS representation
 (as contrasted to the SFO representation).

 Notes:
 1. The functions are characterized by a polynomial prefactor (powers of x,y,z and r) and
    an exponential decay factor alpha.
 2. Since the basis sets are specific for an atom TYPE, the individual functions occur on
    all atoms of that type.
 3. The word 'Core' in the left margin signals that it is a Core Function (CF) : not a
    degree of freedom in the valence set, but only used to ensure orthogonalization of
    the other valence basis functions on the frozen Core Orbitals.


 (power of) X  Y  Z  R     Alpha  on Atom
            ==========     =====     ==========

 P                                    1
                                  ---------------------------------------------------------------------------
    Core    0  0  0  0    12.550      1
            0  0  0  1     5.600      2
            0  0  0  1     4.050      3
            1  0  0  0     7.450      4
            0  1  0  0     7.450      5
            0  0  1  0     7.450      6
            1  0  0  0     4.100      7
            0  1  0  0     4.100      8
            0  0  1  0     4.100      9
            0  0  0  2     1.300     10
            0  0  0  2     1.850     11
            0  0  0  2     2.650     12
            1  0  0  1     0.850     13
            0  1  0  1     0.850     14
            0  0  1  1     0.850     15
            1  0  0  1     1.300     16
            0  1  0  1     1.300     17
            0  0  1  1     1.300     18
            1  0  0  1     2.050     19
            0  1  0  1     2.050     20
            0  0  1  1     2.050     21
            2  0  0  0     1.900     22
            1  1  0  0     1.900     23
            1  0  1  0     1.900     24
            0  2  0  0     1.900     25
            0  1  1  0     1.900     26
            0  0  2  0     1.900     27

 O                                    2    3    4    5
                                  ---------------------------------------------------------------------------
    Core    0  0  0  0     7.360     28   47   66   85
            0  0  0  1     1.720     29   48   67   86
            0  0  0  1     2.880     30   49   68   87
            0  0  0  1     7.580     31   50   69   88
            1  0  0  0     1.120     32   51   70   89
            0  1  0  0     1.120     33   52   71   90
            0  0  1  0     1.120     34   53   72   91
            1  0  0  0     2.080     35   54   73   92
            0  1  0  0     2.080     36   55   74   93
            0  0  1  0     2.080     37   56   75   94
            1  0  0  0     4.080     38   57   76   95
            0  1  0  0     4.080     39   58   77   96
            0  0  1  0     4.080     40   59   78   97
            2  0  0  0     2.000     41   60   79   98
            1  1  0  0     2.000     42   61   80   99
            1  0  1  0     2.000     43   62   81  100
            0  2  0  0     2.000     44   63   82  101
            0  1  1  0     2.000     45   64   83  102
            0  0  2  0     2.000     46   65   84  103

 Total number of charge fitting functions (nprimf)       434
 Total number of Cartesian basis functions (naos)        103
 Total number of Cartesian core functions  (ncos)          5



 Coordinates (Cartesian)
 =======================

     Atom                    bohr                                 angstrom                 Geometric Variables
                   X           Y           Z              X           Y           Z       (0:frozen, *:LT par.)
 --------------------------------------------------------------------------------------------------------------
     1 P       0.000000    0.000000    1.443624       0.000000    0.000000    0.763933      1       2       3
     2 O       1.506651    2.609596    2.509112       0.797285    1.380939    1.327765      4       5       6
     3 O       0.000000    0.000000   -1.882294       0.000000    0.000000   -0.996067      7       8       9
     4 O       1.506651   -2.609596    2.509112       0.797285   -1.380939    1.327765     10      11      12
     5 O      -3.013302    0.000000    2.509112      -1.594571    0.000000    1.327765     13      14      15
 --------------------------------------------------------------------------------------------------------------
1
 ***************************************************************************************************



                                              ***********************
                                              *  T E C H N I C A L  *
                                              ***********************
  



 =============================================================
 P A R A L L E L I Z A T I O N  and  V E C T O R I Z A T I O N
 =============================================================
  
 Nr of parallel processes:                               28
 Maximum vector length in NumInt loops:                 128



 ===============================
 G E O M E T R Y   U P D A T E S
 ===============================
  
 Optimization coordinates:                       Delocalized
 Optimization code branch:                       NEW
 Hessian update method:                          BFGS (Broyden-Fletcher-Goldfarb-Shanno)

 Iterative Geometry Improvements:
    Max. nr. of iterations:                         30
    Convergence criteria:
         Change in energy (hartree):                 0.0010000000
         Gradients (au/Angstrom):                    0.0010000000
         Cart/bondlength changes (Angstrom):         0.0100000000
    Max. step to take:
         Trust Radius:                               0.2000000000

 GDIIS (Geometry Direct Inversion in Iteration Space):
    First geometry cycle:                            0
    Max. number expansion vectors:                   5



 =====================
 S C F   U P D A T E S
 =====================
  
 Max. nr. of cycles:                               300
 Convergence criterion:                              0.0000010000
   secondary criterion:                              0.0010000000

 Mix parameter (when DIIS does not apply):           0.2000000000
 Mixed ADIIS+SDIIS will be used                  
    Max number of expansion vectors:                10
    Pure ADIIS when Max([F,P]) is above              0.1000000000
    Pure SDIIS when Max([F,P]) is below              0.0010000000



 =================
 P R E C I S I O N  ***  (General: NumInt, NeglectFunctionTails, ...)  ***
 =================
  

 NumInt:           Target precision:                 6.0000000000
 -------           Initial precision:                6.0000000000
                   Min. precision (optimization):    6.0000000000

[...]
    4. O              15.99491400
    5. O              15.99491400



 ======================================
 Normal Modes in Symmetry Displacements  ***  (cartesians, not mass-weighted)  ***
 ======================================
  


                                       === A1 ===

 Symmetry Displacements


                          1                             2                             3
              ------------------------      ------------------------      ------------------------
    1.P          0.000   0.000   0.147         0.000   0.000   0.000         0.000   0.000   0.000
    2.O          0.000   0.000  -0.071         0.000   0.000   0.072         0.072   0.125   0.000
    3.O          0.000   0.000  -0.071         0.000   0.000  -0.217         0.000   0.000   0.000
    4.O          0.000   0.000  -0.071         0.000   0.000   0.072         0.072  -0.125   0.000
    5.O          0.000   0.000  -0.071         0.000   0.000   0.072        -0.144   0.000   0.000

 Largest computed component in inactive x Dipole derivative=  0.9046E-04
 (symmetry index=  1)
 Deviation may result from numerical integration and/or the non-linearity
 in the transformations between Cartesian and Z-matrix coordinates.

 Largest computed component in inactive y Dipole derivative=  0.8463E-05
 (symmetry index=  1)
 Deviation may result from numerical integration and/or the non-linearity
 in the transformations between Cartesian and Z-matrix coordinates.


 Frequencies and Normal Modes
 ============================

             1           2           3

          482.7626    836.7682    925.8512
        ----------  ----------  ----------
   1    0.59663442 -0.00137552  0.80251198
   2   -0.65499887  0.57695572  0.48795345
   3    0.46368507  0.81677427 -0.34333068


 Intensities
 ===========

               Frequency       Dipole Strength        Absorption Intensity (degeneracy not counted)
                 cm-1           1e-40 esu2 cm2          km/mole
              ----------          ----------          ----------
              482.762580          673.742180           81.527741
              836.768222            0.016434            0.003447
              925.851152         2831.969524          657.215529


                                       === E1:1 ===

 Symmetry Displacements


                          1                             2                             3
              ------------------------      ------------------------      ------------------------
    1.P          0.147   0.000   0.000         0.000   0.000   0.000         0.000   0.000   0.000
    2.O         -0.071   0.000   0.000         0.051   0.000   0.072         0.072  -0.125   0.000
    3.O         -0.071   0.000   0.000        -0.153   0.000   0.000         0.000   0.000   0.000
    4.O         -0.071   0.000   0.000         0.051   0.000   0.072         0.072   0.125   0.000
    5.O         -0.071   0.000  -0.000         0.051   0.000  -0.144        -0.144   0.000   0.000


                                       === E1:2 ===

 Symmetry Displacements


                          1                             2                             3
              ------------------------      ------------------------      ------------------------
    1.P          0.000   0.147   0.000         0.000   0.000   0.000         0.000   0.000   0.000
    2.O          0.000  -0.071   0.000         0.000   0.051   0.125        -0.125  -0.072   0.000
    3.O          0.000  -0.071   0.000         0.000  -0.153   0.000         0.000   0.000   0.000
    4.O          0.000  -0.071  -0.000         0.000   0.051  -0.125         0.125  -0.072   0.000
    5.O          0.000  -0.071   0.000         0.000   0.051   0.000         0.000   0.144   0.000


 Frequencies and Normal Modes
 ============================

             1           2           3

          354.1639    484.0206    926.1901
        ----------  ----------  ----------
   1   -0.00225581  0.59525791  0.80353153
   2    0.81435727  0.46743304 -0.34398922
   3    0.58035949 -0.65358578  0.48580705


 Intensities
 ===========

               Frequency       Dipole Strength        Absorption Intensity (degeneracy not counted)
                 cm-1           1e-40 esu2 cm2          km/mole
              ----------          ----------          ----------
              354.163941            0.041149            0.003653
              484.020566          661.897686           80.303181
              926.190135         2842.828086          659.977027



 Zero-Point Energy :      0.013154 a.u.
 ===================      0.357951 eV
                                                   hartree              eV         kcal/mol           kJ/mol
                                      --------------------     -----------       ----------      -----------
              Bond Energy:              -1.656345933769131        -45.0715         -1039.37         -4348.74
              Zero-Point Energy:         0.013154439225452          0.3580             8.25            34.54
              Enthalpy (T=0K):          -1.643191494543680        -44.7135         -1031.12         -4314.20



 ===========================
 Vibrations and Normal Modes  ***  (cartesian coordinates, NOT mass-weighted)  ***
 ===========================
  
 The headers on the normal mode eigenvectors below give the Frequency in cm-1
 (a negative value means an imaginary frequency, no output for (almost-)zero frequencies)


                       354.164                       354.164                       482.763
              ------------------------      ------------------------      ------------------------
    1.P          0.001  -0.000   0.000        -0.000  -0.001  -0.000        -0.000   0.000   0.374
    2.O         -0.346   0.290  -0.219        -0.277  -0.012   0.416         0.142   0.247  -0.382
    3.O          0.498  -0.020   0.000        -0.020  -0.498  -0.000         0.000  -0.000   0.422
    4.O         -0.323  -0.290  -0.251         0.303   0.011  -0.398         0.142  -0.247  -0.382
    5.O          0.168   0.020   0.470        -0.007   0.502  -0.019        -0.285  -0.000  -0.382


                       484.021                       484.021                       836.768
              ------------------------      ------------------------      ------------------------
    1.P          0.090  -0.362   0.000         0.362   0.090  -0.000         0.000  -0.000   0.001
    2.O         -0.405  -0.034  -0.206        -0.188   0.366   0.199        -0.236  -0.408  -0.167
    3.O         -0.117   0.471   0.000        -0.471  -0.117  -0.000        -0.000  -0.000   0.499
    4.O          0.270  -0.202   0.276        -0.356  -0.308   0.079        -0.236   0.408  -0.167
    5.O          0.078   0.466  -0.069         0.312  -0.116  -0.278         0.472  -0.000  -0.167


                       925.851                       926.190                       926.190
              ------------------------      ------------------------      ------------------------
    1.P         -0.000  -0.000  -0.533        -0.006   0.533  -0.000        -0.533  -0.006   0.000
    2.O          0.111   0.193   0.099        -0.271  -0.492  -0.192         0.182   0.279   0.114
    3.O          0.000   0.000   0.733         0.000  -0.021   0.000         0.021   0.000  -0.000
    4.O          0.111  -0.193   0.099         0.275  -0.498   0.195         0.176  -0.268   0.110
    5.O         -0.223   0.000   0.099         0.007  -0.022  -0.002         0.653   0.000  -0.223




 List of All Frequencies:


 Intensities
 ===========

               Frequency       Dipole Strength        Absorption Intensity (degeneracy not counted)
                 cm-1           1e-40 esu2 cm2          km/mole
              ----------          ----------          ----------
              354.163941            0.041149            0.003653
              354.163941            0.041149            0.003653
              482.762580          673.742180           81.527741
              484.020566          661.897686           80.303181
              484.020566          661.897686           80.303181
              836.768222            0.016434            0.003447
              925.851152         2831.969524          657.215529
              926.190135         2842.828086          659.977027
              926.190135         2842.828086          659.977027



 ============================
 Statistical Thermal Analysis  ***  ideal gas assumed  ***
 ============================
  
 Pressure:                  1.000000 atm.
 Temperature:             298.150000 K



 Moments of Inertia [amu*bohr^2] and principal axis
 ==================================================

         381.1034        381.1034        381.1512
 ------------------------------------------------
           0.0000         -1.0000          0.0000
          -1.0000          0.0000          0.0000
           0.0000          0.0000          1.0000


 The rotational contribution to the molecular entropy includes
 a term, dependent on the symmetry number sigma. The results 
 reported below were computed using sigma = 3, determined from
 the point group symmetry of the input geometry (C(3V)). 
 If this is not the correct symmetry, try symmetrizing the molecule before
 running the calculation (note: linear molecules should be aligned along one
 of the Cartesian axes).
 Contributions from frequencies below 20 1/cm are not included in
 the vibrational sums. Their contributions, if any, are reported separately.


     Temp                                                       Transl     Rotat    Vibrat     Total
     ----                                                       ------     -----    ------     -----

     298.15   Entropy (cal/mole-K):                             39.564    23.335     4.953    67.852
              Internal Energy (Kcal/mole):                       0.889     0.889     9.282    11.060
              Constant Volume Heat Capacity (cal/mole-K):        2.981     2.981     8.981    14.943

              Summary of energy terms
                                                   hartree              eV         kcal/mol           kJ/mol
                                      --------------------     -----------       ----------      -----------
              Bond Energy:              -1.656345933769131        -45.0715         -1039.37         -4348.74
              Internal Energy:           0.017625147690207          0.4796            11.06            46.27
              pV/n = RT:                 0.000944186013486          0.0257             0.59             2.48
              Enthalpy H:               -1.637776600065439        -44.5662         -1027.72         -4299.98
              -T*S:                     -0.032238756539318         -0.8773           -20.23           -84.64
              Gibbs free energy:        -1.670015356604756        -45.4434         -1047.95         -4384.62
 

 ***************************************************************************************************
 


====================================================================
*** DONE CALCULATING ANALYTICAL SECOND DERIVATIVES OF THE ENERGY ***
====================================================================




 ===========================================================
 SCAN POTENTIAL ENERGY SURFACE ALONG A RANGE OF NORMAL MODES  ***  with IR intensities  ***
 ===========================================================
  

 Symmetry has been reset to default with TOL= 0.000001000000

 RANGE OF FREQUENCIES: from  -1000.000 to      0.000



 ===================
 Vibration symmetry:  ***  A1  ***
 ===================
  
 Total number of frequencies of this symmetry:     3
 Frequencies, cm^(-1):
     482.763     836.768     925.851
 Number of frequencies in the requested range:     0



 ===================
 Vibration symmetry:  ***  E1:1  ***
 ===================
  
 Total number of frequencies of this symmetry:     3
 Frequencies, cm^(-1):
     354.164     484.021     926.190
 Number of frequencies in the requested range:     0
 ===================================================================================================
 Summary of a frequency scan in the requested range: 
 (One component per degenerate irreducible representations, degeneracy is not counted in the intens.)
 ---------------------------------------------------------------------------------------------------
 Frequency, cm**(-1)      Dipol moment derivatives (a.u.)      IR Intensity   Force const   Red.mass
    Old      New                X         Y         Z            km/mole          a.u.        a.u.
 ---------------------------------------------------------------------------------------------------
 Vibration symmetry: A1
   482.763      not re-calculated (not in the required range)
   836.768      not re-calculated (not in the required range)
   925.851      not re-calculated (not in the required range)
 ---------------------------------------------------------------------------------------------------
 Vibration symmetry: E1:1
   354.164      not re-calculated (not in the required range)
   484.021      not re-calculated (not in the required range)
   926.190      not re-calculated (not in the required range)
 ===================================================================================================



 ============================
 Statistical Thermal Analysis  ***  ideal gas assumed  ***
 ============================
  
 Pressure:                  1.000000 atm.
 Temperature:             298.150000 K



 Moments of Inertia [amu*bohr^2] and principal axis
 ==================================================

         381.1034        381.1034        381.1512
 ------------------------------------------------
           0.0000         -1.0000          0.0000
          -1.0000          0.0000          0.0000
           0.0000          0.0000          1.0000


 The rotational contribution to the molecular entropy includes
 a term, dependent on the symmetry number sigma. The results 
 reported below were computed using sigma = 3, determined from
 the point group symmetry of the input geometry (C(3V)). 
 If this is not the correct symmetry, try symmetrizing the molecule before
 running the calculation (note: linear molecules should be aligned along one
 of the Cartesian axes).
 Contributions from frequencies below 20 1/cm are not included in
 the vibrational sums. Their contributions, if any, are reported separately.


     Temp                                                       Transl     Rotat    Vibrat     Total
     ----                                                       ------     -----    ------     -----

     298.15   Entropy (cal/mole-K):                             39.564    23.335     4.953    67.852
              Internal Energy (Kcal/mole):                       0.889     0.889     9.282    11.060
              Constant Volume Heat Capacity (cal/mole-K):        2.981     2.981     8.981    14.943

              Summary of energy terms
                                                   hartree              eV         kcal/mol           kJ/mol
                                      --------------------     -----------       ----------      -----------
              Bond Energy:              -1.656345933769131        -45.0715         -1039.37         -4348.74
              Internal Energy:           0.017625147690207          0.4796            11.06            46.27
              pV/n = RT:                 0.000944186013486          0.0257             0.59             2.48
              Enthalpy H:               -1.637776600065439        -44.5662         -1027.72         -4299.98
              -T*S:                     -0.032238756539318         -0.8773           -20.23           -84.64
              Gibbs free energy:        -1.670015356604756        -45.4434         -1047.95         -4384.62
 
 
 ========================
 No memory problems found
 ========================
 
 Maximum number of active allocate calls:        1730
 
 *******************************************************************************

                             A D F   E X I T
 NORMAL TERMINATION



 =================
 Timing Statistics
 =================
  
 Total Used :                     CPU=       42.60      System=       15.15     Elapsed=       60.34

 Calls  Section                     ( Mean, Percentage )
 ---------------------------------------------------------------------------------------------------
     3  ><      ................      0.00    0.01             0.00    0.00             0.00    0.01
     1  INIT    ................      0.39    0.91             0.02    0.11             0.42    0.70
     1  GEOMET  ................      0.04    0.08             0.01    0.08             0.06    0.10
     1  FRAGM   ................      0.02    0.04             0.02    0.11             0.03    0.06
     1  INPUTA  ................      0.00    0.00             0.00    0.00             0.00    0.00
     1  ATDEN   ................      0.00    0.01             0.00    0.00             0.01    0.01
     8  MAINSY  ................      0.02    0.39             0.00    0.24             0.04    0.50
     8  SYMFIT  ................      0.00    0.03             0.00    0.03             0.00    0.04
     8  CORORT  ................      0.00    0.05             0.00    0.00             0.00    0.03
     8  SYMORB  ................      0.00    0.04             0.00    0.03             0.00    0.05
     8  CLSMAT  ................      0.01    0.11             0.00    0.03             0.01    0.09
     8  ORTHON  ................      0.01    0.13             0.00    0.08             0.01    0.12
     8  GENPT   ................      0.06    1.19             0.00    0.16             0.07    0.92
     8  PTBAS   ................      0.05    0.85             0.01    0.50             0.06    0.73
    92  FOCKY   ................      0.17   36.51             0.06   37.23             0.24   36.63
    92  FOCKTR  ................      0.00    0.75             0.00    0.21             0.00    0.62
    92  SDIIS   ................      0.00    0.52             0.00    0.40             0.00    0.59
     8  TOTEN   ................      0.30    5.71             0.01    0.61             0.33    4.43
     8  POPAN   ................      0.00    0.07             0.00    0.00             0.01    0.07
     8  DEBYE   ................      0.00    0.06             0.00    0.08             0.00    0.07
     8  INPUTE  ................      0.00    0.00             0.00    0.05             0.00    0.01
     8  SYMORE  ................      0.00    0.02             0.00    0.00             0.00    0.01
    15  ELNRGY  ................      0.10    3.38             0.00    0.34             0.10    2.59
     7  ENGRAD  ................      0.00    0.00             0.00    0.00             0.00    0.01
     1  COREPS  ................      0.14    0.32             0.01    0.05             0.16    0.26
     1  METS    ................      0.00    0.01             0.00    0.00             0.00    0.00
     1  CETS    ................      0.01    0.03             0.00    0.00             0.01    0.02
     1  POPUL   ................      0.01    0.02             0.00    0.00             0.01    0.01
     1  ENHESS  ................     20.75   48.70             9.03   59.60            30.91   51.23
     1  EXIT PROCEDURE .........      0.03    0.08             0.01    0.08             0.05    0.08


 Currently Open Files (EXIT00)
 ====================

 Unit    Access Format  Status   Type       Ident (file)
 -------------------------------------------------------
   3      SEQ    FORM   TRANSP  NORMAL      LOGFILE
                                          ( logfile )

 ***************************************************************************************************
