
 *******************************************************************************
 *                                                                             *
 *  -------------------------------------                                      *
 *   Amsterdam Density Functional  (ADF)         2019                          *
 *  -------------------------------------                                      *
 *                                               r74351 2019-04-25             *
 *                                                                             *
 *                                                                             *
 *                            =====================                            *
 *                            |                   |                            *
 *                            |     D I R A C     |                            *
 *                            |                   |                            *
 *                            =====================                            *
 *                                                                             *
 *                                                                             *
 *   Online information and documentation:  https://www.scm.com/support/       *
 *   E-mail:  support@scm.com   info@scm.com                                   *
 *                                                                             *
 *   Scientific publications using ADF results must be properly referenced     *
 *   See the User Manuals (or the web site) for recommended citations          *
 *   The terms and conditions of the End User License Agreement apply to       *
 *   the use of ADF, https://www.scm.com/license-terms/                        *
 *                                                                             *
 **********************  x86_64_linux_intel / intelmpi  ************************
 
 Licensed to: Dr. Carles Bo / Institute of Chemical Research of Catalonia ( (ICIQ) / Tarragona / Spain 2022-11-28 14:37:29
 SCM User ID: u7609
  
 DIRAC 2019  RunTime: Feb11-2023 15:37:36  Nodes: 1  Procs: 1

 Temporary files are created in /scratch/kid_0.1002470101

1
 HYDROGEN ATOM RELATIVISTIC, Point Nuc, A and c from libtc   
 N J RN H ZN XION ANUC CLIGHT
 5000    1100.00000000197.36710137  1.00000000  0.00000000    1.007825  0.1370360E+03
  PH   PHI     EPS        DEL        DELRVR
  0.30  0.30     2500.00  0.00001000  0.00001000
 IDIRC  NC1  NDEBU NPRIN  IPUN IRCOR IWCOR
   1   300     0     0     0     0     0
   XALPHA      XLATTER      RNUC
  0.70000000  0.00000000  0.00000000 Point Charge
   XN   XL   XJ      XE          XZ      XDELL
  1.0  0.0  0.5      -1.000       1.000     0.00000
 ICORP=  0  NPCL=  0  DEMP=0.00  PEPS=0.000000
 R(1)=  0.1000000E-08 D=  0.1005080E+01 RNUC=  0.0000000E+00
 converged at cycle   32  DENSITY AVERAGING    0.2400
  MAXIMUM ERROR IN R.V(R) IS   0.79874357E-05
 Q,EY,EV,EZ,ESUM,ETOT,RHO  0.100000E+01 -0.266614E+00 -0.619969E+00 -0.910779E+00 -0.203940E+00 -0.415998E+00  0.337036E-17


 DIRAC CALCULATION
1                    HYDROGEN ATOM RELATIVISTIC, Point Nuc, A and c from libtc


 EXCHANGE COEFFICIENT=  0.7000000           TAIL CORRECTION=  0.           NUCLEAR RADIUS=  0.000E+00
0                       ORBITAL    N    L    J     ELECTRONS     EIGENVALUE                DELTA OF EIGENV.

                          1S1/2  1.0  0.0  0.5     1.000       -0.2039397E+00                 0.2720093E-06


                                        NUCLEAR CHARGE=    1.000000
                            INTEGRAL OF CHARGE DENSITY=    1.000000
                           SUM OF THE ORBITAL ENERGIES=     -0.2039
                                          TOTAL ENERGY=     -0.4160
                                        KINETIC ENERGY=      0.4160
                             NUCLEAR ATTRACTION ENERGY=     -0.9108
                             ELECTRON REPULSION ENERGY=      0.2787
                                       EXCHANGE ENERGY=     -0.2000

 *******************************************************************************

                             D I R A C   E X I T
 NORMAL TERMINATION



 =================
 Timing Statistics
 =================
  
 Total Used :                     CPU=        0.07      System=        0.00     Elapsed=        0.08

 Calls  Section                     ( Mean, Percentage )
 ---------------------------------------------------------------------------------------------------
     2  ><      ................      0.00    0.00             0.00    0.00             0.00    0.01
     1  EXIT PROCEDURE .........      0.07  100.00             0.00  100.00             0.08   99.99


 Currently Open Files (EXIT00)
 ====================

 Unit    Access Format  Status   Type       Ident (file)
 -------------------------------------------------------
   3      SEQ    FORM   TRANSP  NORMAL      LOGFILE
                                          ( logfile )
 
Create H   file=TZP-H
XC
  GGA PBE
End
relativistic ZORA
Corepotentials t12.rel
End

 *******************************************************************************
 *                                                                             *
 *  -------------------------------------                                      *
 *   Amsterdam Density Functional  (ADF)         2019                          *
 *  -------------------------------------                                      *
 *                                               r74351 2019-04-25             *
 *                                                                             *
 *                                                                             *
 *                              =================                              *
 *                              |               |                              *
 *                              |     A D F     |                              *
 *                              |               |                              *
 *                              =================                              *
 *                                                                             *
 *                                                                             *
 *   Online information and documentation:  https://www.scm.com/support/       *
 *   E-mail:  support@scm.com   info@scm.com                                   *
 *                                                                             *
 *   Scientific publications using ADF results must be properly referenced     *
 *   See the User Manuals (or the web site) for recommended citations          *
 *   The terms and conditions of the End User License Agreement apply to       *
 *   the use of ADF, https://www.scm.com/license-terms/                        *
 *                                                                             *
 **********************  x86_64_linux_intel / intelmpi  ************************
 
 Licensed to: Dr. Carles Bo / Institute of Chemical Research of Catalonia ( (ICIQ) / Tarragona / Spain 2022-11-28 14:37:29
 SCM User ID: u7609
  
 ADF 2019  RunTime: Feb11-2023 15:37:36  Nodes: 1  Procs: 1

 Temporary files are created in /scratch/kid_0.750374514

 Hydrogen (TZP)



 ===========================
 A T T A C H E D   F I L E S
 ===========================
  
 CREATE - Data File:    TZP-H
                        Hydrogen (TZP)
 Core Potentials:
         file : t12.rel



 ===============================
 M O D E L   P A R A M E T E R S
 ===============================
  
 DENSITY FUNCTIONAL POTENTIAL (scf)
    LDA:                               PW92                                    == Not Default ==
    Gradient Corrections:              PBEc PBEx                               == Not Default ==

 SPIN  (restricted / unrestr.)
    Molecule:                          Restricted                               

 OTHER ASPECTS
    Relativistic Corrections:          scalar (ZORA,MAPA)                      == Not Default ==

    Nuclear Charge Density Model:      Point Charge Nuclei                      
    Core Treatment:                    Frozen Orbital(s)                        

    Hyperfine or Zeeman Interaction:   ---                                      



 =====================================
 S Y M M E T R Y ,   E L E C T R O N S
 =====================================
  
 Symmetry: ATOM

 Irreducible Representations, including subspecies
 -------------------------------------------------
 S
 P:x  P:y  P:z
 D:z2  D:x2-y2  D:xy  D:xz  D:yz
 F:z3  F:z  F:xyz  F:z2x  F:z2y  F:x  F:y


 Configuration of Valence Electrons
 ==================================

          Occupation Numbers
          -------------------------------------------------
 S        1
 P        0
 D        0
 F        0
          -------------------------------------------------

 Total:   1

 Net Charge: 0 (Nuclei minus Electrons)

 Preset values for MO occupations will be applied through SCF cycle no. 1000000
 Thereafter, the program will assign electrons to MOs that are spatially
 similar to the occupied MOs in a "reference" cycle ("KeepOrbitals").
 The reference cycle is always the PREVIOUS cycle: it will evolve with
 the SCF procedure.



 ================================
 (Slater-type)  F U N C T I O N S  ***  (Basis and Fit)  ***
 ================================
  

 Atom Type    1  (H)
 ==============

 Valence Basis Sets:   4
 -----------------------
   1 S    0.690000
   1 S    0.920000
   1 S    1.580000
   2 P    1.250000


 BAS: List of all Elementary Cartesian Basis Functions
 =====================================================

 The numbering in the list below (to the right of the function characteristics) is referred
 to in print-outs of MO eigenvectors and Mulliken populations in the BAS representation
 (as contrasted to the SFO representation).

 Notes:
 1. The functions are characterized by a polynomial prefactor (powers of x,y,z and r) and
    an exponential decay factor alpha.
 2. Since the basis sets are specific for an atom TYPE, the individual functions occur on
    all atoms of that type.
 3. The word 'Core' in the left margin signals that it is a Core Function (CF) : not a
    degree of freedom in the valence set, but only used to ensure orthogonalization of
    the other valence basis functions on the frozen Core Orbitals.


 (power of) X  Y  Z  R     Alpha  on Atom
            ==========     =====     ==========

 H                                    1
                                  ---------------------------------------------------------------------------
            0  0  0  0     0.690      1
            0  0  0  0     0.920      2
            0  0  0  0     1.580      3
            1  0  0  0     1.250      4
            0  1  0  0     1.250      5
            0  0  1  0     1.250      6

 Total number of charge fitting functions (nprimf)        50
 Total number of Cartesian basis functions (naos)          6
 Total number of Cartesian core functions  (ncos)          0



 BAS: List of all Elementary Cartesian Basis Functions
 =====================================================

 The numbering in the list below (to the right of the function characteristics) is referred
 to in print-outs of MO eigenvectors and Mulliken populations in the BAS representation
 (as contrasted to the SFO representation).

 Notes:
 1. The functions are characterized by a polynomial prefactor (powers of x,y,z and r) and
    an exponential decay factor alpha.
 2. Since the basis sets are specific for an atom TYPE, the individual functions occur on
    all atoms of that type.
 3. The word 'Core' in the left margin signals that it is a Core Function (CF) : not a
    degree of freedom in the valence set, but only used to ensure orthogonalization of
    the other valence basis functions on the frozen Core Orbitals.


 (power of) X  Y  Z  R     Alpha  on Atom
            ==========     =====     ==========

 H                                    1
                                  ---------------------------------------------------------------------------
            0  0  0  0     0.690      1
            0  0  0  0     0.920      2
            0  0  0  0     1.580      3
            1  0  0  0     1.250      4
            0  1  0  0     1.250      5
            0  0  1  0     1.250      6
1
 ***************************************************************************************************



                                              ***********************
                                              *  T E C H N I C A L  *
                                              ***********************
  



 =============================================================
 P A R A L L E L I Z A T I O N  and  V E C T O R I Z A T I O N
 =============================================================
  
 Nr of parallel processes:                                1
 Maximum vector length in NumInt loops:                 128



 =====================
 S C F   U P D A T E S
 =====================
  
 Max. nr. of cycles:                               300
 Convergence criterion:                              0.0000000100
   secondary criterion:                              0.0000000100

 Mix parameter (when DIIS does not apply):           0.2000000000
 Special mix parameter for the first cycle:          1.0000000000
 Mixed ADIIS+SDIIS will be used                  
    Max number of expansion vectors:                10
    Pure ADIIS when Max([F,P]) is above              0.1000000000
    Pure SDIIS when Max([F,P]) is below              0.0010000000
 Automatic ElectronSmearing (in case of problematic SCF convergence) disabled



 =================
 P R E C I S I O N  ***  (General: NumInt, NeglectFunctionTails, ...)  ***
 =================
  

 NumInt:           Target precision:                12.0000000000
 -------           Initial precision:               10.0000000000
                   Min. precision (optimization):   10.0000000000

 Neglect Functions:          Basis functions:        0.1000000000E-13
 ------------------          Fit functions:          0.1000000000E-13



 ===========================
 L I N E A R   S C A L I N G
 ===========================
  

 Cut-off radii density fit:                        0.1000000000E-97
 Overlap cut-off criterion AO matrix elements:     0.1000000000E-97
 Cut-offs for Coulomb potential and fitted density:0.1000000000E-97
 Cut-off criterion for Coulomb multipole terms:    0.1000000000E-97
 Progressive Convergence parameter:                 0.000000000    
1
 ***************************************************************************************************



                                            ***************************
                                            *  C O M P U T A T I O N  *
                                            ***************************
  

 Number of elements of the density matrix on this node (used, total):        21        21



 ===========================================
 Numerical Integration : Fuzzy Cells (Becke)
 ===========================================
  
 Becke grid quality: VERYGOOD       
  
 Lebedev angular grid order:             min:  13 max:  41
 Nr. of radial points:                   min:  64 max:  64

 Total nr. of points:         64
 Nr. of blocks:                1
 Block length:                64
 Nr. of dummy points:          0


 Test of Precision of the Numerical Integration Grid
 ===================================================

 Integral of the Total Core Density:                   0.00000000000000



 ========================
 Density Fitting (zlmFit)
 ========================
  
 ZlmFit Fit Quality: VERYGOOD       
  
 Max L-expansion:                        min:   0 max:   0
 Nr. of radial interpolation points:     min: 120 max: 120



 =====
 S C F  ***  ScaSCF  ***
 =====
  

 CYCLE    1
 SCF Error: norm([F,P])=      0.000000000000, max([F,P])=      0.000000000000
 orbitals (Q,E):
 ---------------
 S :1...3            ( 1.00    -0.5000)  ( 0.00    -0.0900)  ( 0.00     1.2936)
 P :1...1            ( 0.00     0.1562)

 CYCLE    2
 SCF Error: norm([F,P])=      0.031537872292, max([F,P])=      0.030110494752
 orbitals (Q,E):
 ---------------
 S :1...2            ( 1.00    -0.2218)  ( 0.00     0.1019)
 P :1...1            ( 0.00     0.4189)

 CYCLE    3
  SDIIS (wt  0.000):  0.1996  0.8004
 A-DIIS (wt  1.000):  0.0000  1.0000
  DIIS coefficients:  0.0000  1.0000
 SCF Error: norm([F,P])=      0.008617989401, max([F,P])=      0.008343029399
 orbitals (Q,E):
 ---------------
 S :1...2            ( 1.00    -0.2422)  ( 0.00     0.0889)
 P :1...1            ( 0.00     0.4024)

 CYCLE    4
  SDIIS (wt  0.993):  0.1666  0.8334
 A-DIIS (wt  0.007):  0.0000  1.0000
  DIIS coefficients:  0.1654  0.8346
 SCF Error: norm([F,P])=      0.001732350026, max([F,P])=      0.001718616814
 orbitals (Q,E):
 ---------------
 S :1...2            ( 1.00    -0.2385)  ( 0.00     0.0908)
 P :1...1            ( 0.00     0.4054)

 CYCLE    5
  SDIIS (wt  1.000):  0.0236  0.9764
  DIIS coefficients:  0.0236  0.9764
 SCF Error: norm([F,P])=      0.000043673449, max([F,P])=      0.000039769875
 orbitals (Q,E):
 ---------------
 S :1...2            ( 1.00    -0.2386)  ( 0.00     0.0908)
 P :1...1            ( 0.00     0.4054)

 CYCLE    6
  SDIIS (wt  1.000): -0.0577  1.0577
  DIIS coefficients: -0.0577  1.0577
 SCF Error: norm([F,P])=      0.000002383805, max([F,P])=      0.000002158128
 orbitals (Q,E):
 ---------------
 S :1...2            ( 1.00    -0.2386)  ( 0.00     0.0908)
 P :1...1            ( 0.00     0.4054)

 CYCLE    7
  SDIIS (wt  1.000): -0.0032  1.0032
  DIIS coefficients: -0.0032  1.0032
 SCF Error: norm([F,P])=      0.000000007721, max([F,P])=      0.000000007228
 orbitals (Q,E):
 ---------------
 S :1...2            ( 1.00    -0.2386)  ( 0.00     0.0908)
 P :1...1            ( 0.00     0.4054)

 SCF CONVERGED

 CYCLE    8
1
 ***************************************************************************************************



                                                *******************
                                                *  R E S U L T S  *
                                                *******************
  
 *** Using FIT density in Focky
  SDIIS (wt  1.000):  0.0192  0.9808
  DIIS coefficients:  0.0192  0.9808
 SCF Error: norm([F,P])=      0.000000000151, max([F,P])=      0.000000000141

 Scaled ZORA Orbital Energies, per Irrep and Spin:
 =================================================
                        Occup              E (au)              E (eV)       Diff (eV) with prev. cycle
                        -----      --------------------        ------       --------------------------
 S
               1        1.000     -0.23861775226993E+00        -6.493               7.43E-09
               2        0.000      0.90791701709251E-01         2.471
               3        0.000      0.15217530108908E+01        41.409
 P
               1        0.000      0.40537978060393E+00        11.031


 Partially Occupied:
               1 S                -0.23861775226993E+00
  
 LUMO :        2 S                 0.90791701709251E-01
  


 Orbital Energies, all Irreps
 ========================================

 Irrep        no.  (spin)   Occup              E (au)                E (eV)
 ---------------------------------------------------------------------------
 S             1             1.00       -0.23861775226993E+00        -6.4931
 S             2             0.00        0.90791701709251E-01         2.4706
 P             1             0.00        0.40537978060393E+00        11.0309
 S             3             0.00        0.15217530108908E+01        41.4090


 All Electron Calculation, thus no Orbital Energies of the Core Orbitals are calculated



 =======================================
 M U L L I K E N   P O P U L A T I O N S
 =======================================
  
 The survey below gives for each atom:
 a) the total charge (Z minus electrons)
 b) the net spin polarization (nr of electrons spin-A minus spin-B)
 c) for each spin the atomic electron valence density (integrated) per L-value.

 Atom              Charge    Spin density          S         P         D         F
 ----              ------    ------------       ------    ------    ------    ------
 1 H              -0.0000                       1.0000    0.0000    0.0000    0.0000

 Populations of individual BAS functions
 ----------------------------------------
 1 H            0.2104  0.6788  0.1107  0.0000  0.0000  0.0000

 Gross Charges per Atom (Z minus electrons)
 ==========================================
            -0.0000
 Net Total: -0.00000000



 =======================================================================
 Electrostatic potential at the Nuclei due to electrons and other nuclei
 =======================================================================
  
         Atom                  Potential
         ----                  ---------
     1)   H                   0.94468022
 
 
 ========================
 No memory problems found
 ========================
 
 Maximum number of active allocate calls:         306
 
 *******************************************************************************

                             A D F   E X I T
 NORMAL TERMINATION



 =================
 Timing Statistics
 =================
  
 Total Used :                     CPU=        0.33      System=        0.04     Elapsed=        0.40

 Calls  Section                     ( Mean, Percentage )
 ---------------------------------------------------------------------------------------------------
     3  ><      ................      0.00    0.00             0.00   11.11             0.00    1.14
     1  INIT    ................      0.07   20.48             0.00   11.11             0.08   19.03
     1  GEOMET  ................      0.01    3.61             0.01   22.22             0.02    6.23
     1  INPUTA  ................      0.00    0.00             0.00    0.00             0.00    0.90
     1  MAINSY  ................      0.01    2.41             0.00   11.11             0.01    3.30
     1  SYMFIT  ................      0.00    0.00             0.00    0.00             0.00    0.40
     1  CORORT  ................      0.00    1.21             0.00    0.00             0.00    0.32
     1  SYMORB  ................      0.00    0.00             0.00    0.00             0.00    0.18
     1  CLSMAT  ................      0.00    1.20             0.00    0.00             0.01    1.33
     1  ORTHON  ................      0.00    1.20             0.00    0.00             0.00    1.25
     1  GENPT   ................      0.01    2.41             0.00   11.11             0.01    3.24
     1  PTBAS   ................      0.00    1.20             0.00    0.00             0.00    1.20
     8  FOCKY   ................      0.02   53.01             0.00   22.22             0.02   46.15
     8  FOCKTR  ................      0.00    2.41             0.00    0.00             0.00    0.99
     8  SDIIS   ................      0.00    1.20             0.00   11.11             0.00    5.68
     1  COREPS  ................      0.02    4.82             0.00    0.00             0.01    3.71
     1  POPAN   ................      0.00    1.20             0.00    0.00             0.00    1.17
     1  DEBYE   ................      0.00    0.00             0.00    0.00             0.00    0.49
     1  EXIT PROCEDURE .........      0.01    3.61             0.00    0.00             0.01    3.30


 Currently Open Files (EXIT00)
 ====================

 Unit    Access Format  Status   Type       Ident (file)
 -------------------------------------------------------
   3      SEQ    FORM   TRANSP  NORMAL      LOGFILE
                                          ( logfile )

 ***************************************************************************************************
 (LOGFILE)
 <Feb11-2023> <15:37:36>  DIRAC 2019  RunTime: Feb11-2023 15:37:36  Nodes: 1  Procs: 1
 <Feb11-2023> <15:37:36>  NORMAL TERMINATION
 <Feb11-2023> <15:37:36>  END
 <Feb11-2023> <15:37:36>  ADF 2019  RunTime: Feb11-2023 15:37:36  Nodes: 1  Procs: 1
 <Feb11-2023> <15:37:36>  Hydrogen (TZP)
 <Feb11-2023> <15:37:36>  RunType   : CREATE
 <Feb11-2023> <15:37:36>  Net Charge: 0 (Nuclei minus Electrons)
 <Feb11-2023> <15:37:36>  Symmetry  : ATOM
  Coordinates
    Atom         X           Y           Z   (Angstrom)
    1.H         0.000000    0.000000    0.000000
 <Feb11-2023> <15:37:36>  >>>> CORORT
 <Feb11-2023> <15:37:36>  >>>> CLSMAT
 <Feb11-2023> <15:37:36>  >>>> ORTHON
 <Feb11-2023> <15:37:36>  >>>> GENPT
 <Feb11-2023> <15:37:36>  Block Length=  64
 <Feb11-2023> <15:37:36>  >>>> PTBAS
 <Feb11-2023> <15:37:36>  >>>> CYCLE
 <Feb11-2023> <15:37:36>              |Error|         MaxErr       Wt(A-DIIS)
 <Feb11-2023> <15:37:36>      1      0.00000000      0.00000000
 <Feb11-2023> <15:37:36>      2      0.03153787      0.03011049
 <Feb11-2023> <15:37:36>      3      0.00861799      0.00834303    100.0
 <Feb11-2023> <15:37:36>      4      0.00173235      0.00171862      0.7
 <Feb11-2023> <15:37:36>      5      0.00004367      0.00003977      0.0
 <Feb11-2023> <15:37:36>      6      0.00000238      0.00000216      0.0
 <Feb11-2023> <15:37:36>      7      0.00000001      0.00000001      0.0
 <Feb11-2023> <15:37:36>  SCF converged
 <Feb11-2023> <15:37:36>      8      0.00000000      0.00000000      0.0
 <Feb11-2023> <15:37:36>  >>>> POPAN
 <Feb11-2023> <15:37:36>  >>>> DEBYE
 <Feb11-2023> <15:37:36>  NORMAL TERMINATION
 <Feb11-2023> <15:37:36>  END

 *******************************************************************************
 *                                                                             *
 *  -------------------------------------                                      *
 *   Amsterdam Density Functional  (ADF)         2019                          *
 *  -------------------------------------                                      *
 *                                               r74351 2019-04-25             *
 *                                                                             *
 *                                                                             *
 *                            =====================                            *
 *                            |                   |                            *
 *                            |     D I R A C     |                            *
 *                            |                   |                            *
 *                            =====================                            *
 *                                                                             *
 *                                                                             *
 *   Online information and documentation:  https://www.scm.com/support/       *
 *   E-mail:  support@scm.com   info@scm.com                                   *
 *                                                                             *
 *   Scientific publications using ADF results must be properly referenced     *
 *   See the User Manuals (or the web site) for recommended citations          *
 *   The terms and conditions of the End User License Agreement apply to       *
 *   the use of ADF, https://www.scm.com/license-terms/                        *
 *                                                                             *
 **********************  x86_64_linux_intel / intelmpi  ************************
 
 Licensed to: Dr. Carles Bo / Institute of Chemical Research of Catalonia ( (ICIQ) / Tarragona / Spain 2022-11-28 14:37:29
 SCM User ID: u7609
  
 DIRAC 2019  RunTime: Feb11-2023 15:37:36  Nodes: 1  Procs: 1

 Temporary files are created in /scratch/kid_0.921856423

1
 PHOSPHORUS ATOM 1s CORE RELATIVISTIC, Point Nuc, A and c fro
 N J RN H ZN XION ANUC CLIGHT
 5000    7100.00000000197.36710137 15.00000000  0.00000000   30.973761  0.1370360E+03
  PH   PHI     EPS        DEL        DELRVR
  0.30  0.30     2500.00  0.00001000  0.00001000
 IDIRC  NC1  NDEBU NPRIN  IPUN IRCOR IWCOR
   1   300     0     0     0     0     1
   XALPHA      XLATTER      RNUC
  0.70000000  0.00000000  0.00000000 Point Charge
   XN   XL   XJ      XE          XZ      XDELL
  1.0  0.0  0.5    -600.000       2.000     0.00000
  2.0  0.0  0.5     -75.000       2.000     0.00000
  2.0  1.0  0.5     -70.000       2.000     0.00000
  2.0  1.0  1.5     -70.000       4.000     0.00000
  3.0  0.0  0.5     -25.000       2.000     0.00000
  3.0  1.0  0.5      -0.250       2.000     0.00000
  3.0  1.0  1.5      -0.250       1.000     0.00000
 ICORP=  0  NPCL=  0  DEMP=0.00  PEPS=0.000000
 R(1)=  0.1000000E-08 D=  0.1005080E+01 RNUC=  0.0000000E+00
 converged at cycle   47  DENSITY AVERAGING    0.3000
  MAXIMUM ERROR IN R.V(R) IS   0.93255186E-05
 Q,EY,EV,EZ,ESUM,ETOT,RHO  0.150000E+02 -0.290161E+02 -0.536820E+03 -0.814855E+03 -0.194417E+03 -0.340688E+03  0.340722E-13


 DIRAC CALCULATION
1                    PHOSPHORUS ATOM 1s CORE RELATIVISTIC, Point Nuc, A and c from libtc


 EXCHANGE COEFFICIENT=  0.7000000           TAIL CORRECTION=  0.           NUCLEAR RADIUS=  0.000E+00
0                       ORBITAL    N    L    J     ELECTRONS     EIGENVALUE                DELTA OF EIGENV.

                          1S1/2  1.0  0.0  0.5     2.000       -0.7640874E+02                 0.2597240E-06
                          2S1/2  2.0  0.0  0.5     2.000       -0.6353640E+01                 0.3482713E-07
                          2P1/2  2.0  1.0  0.5     2.000       -0.4588256E+01                 0.3010938E-07
                          2P3/2  2.0  1.0  1.5     4.000       -0.4554413E+01                 0.2993762E-07
                          3S1/2  3.0  0.0  0.5     2.000       -0.4844206E+00                 0.1693624E-07
                          3P1/2  3.0  1.0  0.5     2.000       -0.1770291E+00                 0.1234259E-07
                          3P3/2  3.0  1.0  1.5     1.000       -0.1750217E+00                 0.1224459E-07


                                        NUCLEAR CHARGE=   15.000000
                            INTEGRAL OF CHARGE DENSITY=   15.000000
                           SUM OF THE ORBITAL ENERGIES=   -194.4169
                                          TOTAL ENERGY=   -340.6884
                                        KINETIC ENERGY=    342.4034
                             NUCLEAR ATTRACTION ENERGY=   -814.8554
                             ELECTRON REPULSION ENERGY=    153.5256
                                       EXCHANGE ENERGY=    -21.7621

 *******************************************************************************

                             D I R A C   E X I T
 NORMAL TERMINATION



 =================
 Timing Statistics
 =================
  
 Total Used :                     CPU=        0.28      System=        0.00     Elapsed=        0.29

 Calls  Section                     ( Mean, Percentage )
 ---------------------------------------------------------------------------------------------------
     2  ><      ................      0.00    0.00             0.00    0.00             0.00    0.00
     1  EXIT PROCEDURE .........      0.28  100.00             0.00    0.00             0.29  100.00


 Currently Open Files (EXIT00)
 ====================

 Unit    Access Format  Status   Type       Ident (file)
 -------------------------------------------------------
   3      SEQ    FORM   TRANSP  NORMAL      LOGFILE
                                          ( logfile )
 
Create P   file=TZP-P.1s
XC
  GGA PBE
End
relativistic ZORA
Corepotentials t12.rel
End

 *******************************************************************************
 *                                                                             *
 *  -------------------------------------                                      *
 *   Amsterdam Density Functional  (ADF)         2019                          *
 *  -------------------------------------                                      *
 *                                               r74351 2019-04-25             *
 *                                                                             *
 *                                                                             *
 *                              =================                              *
 *                              |               |                              *
 *                              |     A D F     |                              *
 *                              |               |                              *
 *                              =================                              *
 *                                                                             *
 *                                                                             *
 *   Online information and documentation:  https://www.scm.com/support/       *
 *   E-mail:  support@scm.com   info@scm.com                                   *
 *                                                                             *
 *   Scientific publications using ADF results must be properly referenced     *
 *   See the User Manuals (or the web site) for recommended citations          *
 *   The terms and conditions of the End User License Agreement apply to       *
 *   the use of ADF, https://www.scm.com/license-terms/                        *
 *                                                                             *
 **********************  x86_64_linux_intel / intelmpi  ************************
 
 Licensed to: Dr. Carles Bo / Institute of Chemical Research of Catalonia ( (ICIQ) / Tarragona / Spain 2022-11-28 14:37:29
 SCM User ID: u7609
  
 ADF 2019  RunTime: Feb11-2023 15:37:37  Nodes: 1  Procs: 1

 Temporary files are created in /scratch/kid_0.1863309498

 Phosphorus (TZP, 1s frozen)



 ===========================
 A T T A C H E D   F I L E S
 ===========================
  
 CREATE - Data File:    TZP-P.1s
                        Phosphorus (TZP, 1s frozen)
 Core Potentials:
         file : t12.rel



 ===============================
 M O D E L   P A R A M E T E R S
 ===============================
  
 DENSITY FUNCTIONAL POTENTIAL (scf)
    LDA:                               PW92                                    == Not Default ==
    Gradient Corrections:              PBEc PBEx                               == Not Default ==

 SPIN  (restricted / unrestr.)
    Molecule:                          Restricted                               

 OTHER ASPECTS
    Relativistic Corrections:          scalar (ZORA,MAPA)                      == Not Default ==

    Nuclear Charge Density Model:      Point Charge Nuclei                      
    Core Treatment:                    Frozen Orbital(s)                        

    Hyperfine or Zeeman Interaction:   ---                                      



 =====================================
 S Y M M E T R Y ,   E L E C T R O N S
 =====================================
  
 Symmetry: ATOM

 Irreducible Representations, including subspecies
 -------------------------------------------------
 S
 P:x  P:y  P:z
 D:z2  D:x2-y2  D:xy  D:xz  D:yz
 F:z3  F:z  F:xyz  F:z2x  F:z2y  F:x  F:y


 Configuration of Valence Electrons
 ==================================

          Occupation Numbers
          -------------------------------------------------
 S        2*2
 P        6 3
 D        0
 F        0
          -------------------------------------------------

 Total:   13

 Net Charge: 0 (Nuclei minus Electrons)

 Preset values for MO occupations will be applied through SCF cycle no. 1000000
 Thereafter, the program will assign electrons to MOs that are spatially
 similar to the occupied MOs in a "reference" cycle ("KeepOrbitals").
 The reference cycle is always the PREVIOUS cycle: it will evolve with
 the SCF procedure.



 ================================
 (Slater-type)  F U N C T I O N S  ***  (Basis and Fit)  ***
 ================================
  

 Atom Type    1  (P)
 ==============

 Valence Basis Sets:  12
 -----------------------
   1 S   12.550000
   2 S    5.600000
   2 S    4.050000
   2 P    7.450000
   2 P    4.100000
   3 S    1.300000
   3 S    1.850000
   3 S    2.650000
   3 P    0.850000
   3 P    1.300000
   3 P    2.050000
   3 D    1.900000

 Frozen Core Shells
 ------------------
    S:  1


 BAS: List of all Elementary Cartesian Basis Functions
 =====================================================

 The numbering in the list below (to the right of the function characteristics) is referred
 to in print-outs of MO eigenvectors and Mulliken populations in the BAS representation
 (as contrasted to the SFO representation).

 Notes:
 1. The functions are characterized by a polynomial prefactor (powers of x,y,z and r) and
    an exponential decay factor alpha.
 2. Since the basis sets are specific for an atom TYPE, the individual functions occur on
    all atoms of that type.
 3. The word 'Core' in the left margin signals that it is a Core Function (CF) : not a
    degree of freedom in the valence set, but only used to ensure orthogonalization of
    the other valence basis functions on the frozen Core Orbitals.


 (power of) X  Y  Z  R     Alpha  on Atom
            ==========     =====     ==========

 P                                    1
                                  ---------------------------------------------------------------------------
    Core    0  0  0  0    12.550      1
            0  0  0  1     5.600      2
            0  0  0  1     4.050      3
            1  0  0  0     7.450      4
            0  1  0  0     7.450      5
            0  0  1  0     7.450      6
            1  0  0  0     4.100      7
            0  1  0  0     4.100      8
            0  0  1  0     4.100      9
            0  0  0  2     1.300     10
            0  0  0  2     1.850     11
            0  0  0  2     2.650     12
            1  0  0  1     0.850     13
            0  1  0  1     0.850     14
            0  0  1  1     0.850     15
            1  0  0  1     1.300     16
            0  1  0  1     1.300     17
            0  0  1  1     1.300     18
            1  0  0  1     2.050     19
            0  1  0  1     2.050     20
            0  0  1  1     2.050     21
            2  0  0  0     1.900     22
            1  1  0  0     1.900     23
            1  0  1  0     1.900     24
            0  2  0  0     1.900     25
            0  1  1  0     1.900     26
            0  0  2  0     1.900     27

 Total number of charge fitting functions (nprimf)       106
 Total number of Cartesian basis functions (naos)         27
 Total number of Cartesian core functions  (ncos)          1



 BAS: List of all Elementary Cartesian Basis Functions
 =====================================================

 The numbering in the list below (to the right of the function characteristics) is referred
 to in print-outs of MO eigenvectors and Mulliken populations in the BAS representation
 (as contrasted to the SFO representation).

 Notes:
 1. The functions are characterized by a polynomial prefactor (powers of x,y,z and r) and
    an exponential decay factor alpha.
 2. Since the basis sets are specific for an atom TYPE, the individual functions occur on
    all atoms of that type.
 3. The word 'Core' in the left margin signals that it is a Core Function (CF) : not a
    degree of freedom in the valence set, but only used to ensure orthogonalization of
    the other valence basis functions on the frozen Core Orbitals.


 (power of) X  Y  Z  R     Alpha  on Atom
            ==========     =====     ==========

 P                                    1
                                  ---------------------------------------------------------------------------
    Core    0  0  0  0    12.550      1
            0  0  0  1     5.600      2
            0  0  0  1     4.050      3
            1  0  0  0     7.450      4
            0  1  0  0     7.450      5
            0  0  1  0     7.450      6
            1  0  0  0     4.100      7
            0  1  0  0     4.100      8
            0  0  1  0     4.100      9
            0  0  0  2     1.300     10
            0  0  0  2     1.850     11
            0  0  0  2     2.650     12
            1  0  0  1     0.850     13
            0  1  0  1     0.850     14
            0  0  1  1     0.850     15
            1  0  0  1     1.300     16
            0  1  0  1     1.300     17
            0  0  1  1     1.300     18
            1  0  0  1     2.050     19
            0  1  0  1     2.050     20
            0  0  1  1     2.050     21
            2  0  0  0     1.900     22
            1  1  0  0     1.900     23
            1  0  1  0     1.900     24
            0  2  0  0     1.900     25
            0  1  1  0     1.900     26
            0  0  2  0     1.900     27
1
 ***************************************************************************************************



                                              ***********************
                                              *  T E C H N I C A L  *
                                              ***********************
  



 =============================================================
 P A R A L L E L I Z A T I O N  and  V E C T O R I Z A T I O N
 =============================================================
  
 Nr of parallel processes:                                1
 Maximum vector length in NumInt loops:                 128



 =====================
 S C F   U P D A T E S
 =====================
  
 Max. nr. of cycles:                               300
 Convergence criterion:                              0.0000000100
   secondary criterion:                              0.0000000100

 Mix parameter (when DIIS does not apply):           0.2000000000
 Special mix parameter for the first cycle:          1.0000000000
 Mixed ADIIS+SDIIS will be used                  
    Max number of expansion vectors:                10
    Pure ADIIS when Max([F,P]) is above              0.1000000000
    Pure SDIIS when Max([F,P]) is below              0.0010000000
 Automatic ElectronSmearing (in case of problematic SCF convergence) disabled



 =================
 P R E C I S I O N  ***  (General: NumInt, NeglectFunctionTails, ...)  ***
 =================
  

 NumInt:           Target precision:                12.0000000000
 -------           Initial precision:               10.0000000000
                   Min. precision (optimization):   10.0000000000

 Neglect Functions:          Basis functions:        0.1000000000E-13
 ------------------          Fit functions:          0.1000000000E-13



 ===========================
 L I N E A R   S C A L I N G
 ===========================
  

 Cut-off radii density fit:                        0.1000000000E-97
 Overlap cut-off criterion AO matrix elements:     0.1000000000E-97
 Cut-offs for Coulomb potential and fitted density:0.1000000000E-97
 Cut-off criterion for Coulomb multipole terms:    0.1000000000E-97
 Progressive Convergence parameter:                 0.000000000    
1
 ***************************************************************************************************



                                            ***************************
                                            *  C O M P U T A T I O N  *
                                            ***************************
  

 Number of elements of the density matrix on this node (used, total):       378       378



 ===========================================
 Numerical Integration : Fuzzy Cells (Becke)
 ===========================================
  
 Becke grid quality: VERYGOOD       
  
 Lebedev angular grid order:             min:  13 max:  41
 Nr. of radial points:                   min:  76 max:  76

 Total nr. of points:         76
 Nr. of blocks:                1
 Block length:                76
 Nr. of dummy points:          0


 Test of Precision of the Numerical Integration Grid
 ===================================================

 Integral of the Total Core Density:                   1.99999999908170
 Relative Error:                                      -4.592E-10



 ========================
 Density Fitting (zlmFit)
 ========================
  
 ZlmFit Fit Quality: VERYGOOD       
  
 Max L-expansion:                        min:   0 max:   0
 Nr. of radial interpolation points:     min: 190 max: 190



 =====
 S C F  ***  ScaSCF  ***
 =====
  

 CYCLE    1
 SCF Error: norm([F,P])=      0.000000000000, max([F,P])=      0.000000000000
 orbitals (Q,E):
 ---------------
 S :1...5            ( 2.00   -23.0992)  ( 2.00    -9.8031)  ( 0.00    -5.2886)  ( 0.00    -3.1440)
                     ( 0.00    -1.2993)
 P :1...5            ( 6.00   -22.3278)  ( 3.00    -9.2322)  ( 0.00    -4.8937)  ( 0.00    -3.0142)
                     ( 0.00    -1.9614)
 D :1...1            ( 0.00    -6.4318)

 CYCLE    2
  SDIIS (wt  0.000):  1.0000  0.0000
 A-DIIS (wt  1.000):  0.1145  0.8855
  DIIS coefficients:  0.1145  0.8855
 SCF Error: norm([F,P])=     18.574199763001, max([F,P])=      5.729460424591
 orbitals (Q,E):
 ---------------
 S :1...3            ( 2.00    -4.5689)  ( 2.00    -0.5693)  ( 0.00    -0.0589)
 P :1...3            ( 6.00    -2.5820)  ( 3.00    -0.3376)  ( 0.00    -0.0879)
 D :1...1            ( 0.00     0.3219)

 CYCLE    3
  SDIIS (wt  0.000):  0.2387  0.7613
 A-DIIS (wt  1.000):  0.0000  1.0000
  DIIS coefficients:  0.0000  1.0000
 SCF Error: norm([F,P])=      7.892246338364, max([F,P])=      2.592954182835
 orbitals (Q,E):
 ---------------
 S :1...3            ( 2.00    -8.2146)  ( 2.00    -0.9843)  ( 0.00    -0.0433)
 P :1...3            ( 6.00    -6.5635)  ( 3.00    -0.6019)  ( 0.00    -0.0049)
 D :1...1            ( 0.00    -0.0107)

 CYCLE    4
  SDIIS (wt  0.000): -0.0871  0.2952  0.7919
 A-DIIS (wt  1.000):  0.0000  0.1757  0.8243
  DIIS coefficients:  0.0000  0.1757  0.8243
 SCF Error: norm([F,P])=      4.387176641077, max([F,P])=      1.761626650861
 orbitals (Q,E):
 ---------------
 S :1...3            ( 2.00    -5.8126)  ( 2.00    -0.3504)  ( 0.00     0.1791)
 P :1...3            ( 6.00    -3.9508)  ( 3.00    -0.0835)  ( 0.00     0.1310)
 D :1...1            ( 0.00     0.5508)

 CYCLE    5
  SDIIS (wt  0.000): -0.0109 -0.0602  0.1941  0.8770
 A-DIIS (wt  1.000):  0.0000  0.0000  0.0000  1.0000
  DIIS coefficients:  0.0000  0.0000  0.0000  1.0000
 SCF Error: norm([F,P])=      1.324345584458, max([F,P])=      0.466956153840
 orbitals (Q,E):
 ---------------
 S :1...3            ( 2.00    -6.8907)  ( 2.00    -0.7073)  ( 0.00     0.0342)
 P :1...3            ( 6.00    -5.0922)  ( 3.00    -0.3650)  ( 0.00     0.0330)
 D :1...1            ( 0.00     0.1959)

 CYCLE    6
  SDIIS (wt  0.000):  0.0000 -0.0289 -0.0346  0.4584  0.6050
 A-DIIS (wt  1.000):  0.0000  0.0000  0.0000  0.3111  0.6889
  DIIS coefficients:  0.0000  0.0000  0.0000  0.3111  0.6889
 SCF Error: norm([F,P])=      0.894656609953, max([F,P])=      0.328552344502
 orbitals (Q,E):
 ---------------
 S :1...3            ( 2.00    -6.3109)  ( 2.00    -0.4896)  ( 0.00     0.1210)
 P :1...3            ( 6.00    -4.4823)  ( 3.00    -0.1842)  ( 0.00     0.0870)
 D :1...1            ( 0.00     0.4072)

 CYCLE    7
  SDIIS (wt  0.437):  0.0003 -0.0004 -0.0106 -0.0415  0.1385  0.9137
 A-DIIS (wt  0.563):  0.0000  0.0000  0.0000  0.0000  0.0000  1.0000
  DIIS coefficients:  0.0001 -0.0002 -0.0046 -0.0181  0.0605  0.9623
 SCF Error: norm([F,P])=      0.152753231532, max([F,P])=      0.056768903175
 orbitals (Q,E):
 ---------------
 S :1...3            ( 2.00    -6.4268)  ( 2.00    -0.5264)  ( 0.00     0.1084)
 P :1...3            ( 6.00    -4.6039)  ( 3.00    -0.2126)  ( 0.00     0.0772)
 D :1...1            ( 0.00     0.3702)

 CYCLE    8
  SDIIS (wt  0.777): -0.0000 -0.0007  0.0025  0.0136 -0.0400  0.1180  0.9067
 A-DIIS (wt  0.223):  0.0000  0.0000  0.0000  0.0000  0.0000  0.0410  0.9590
  DIIS coefficients: -0.0000 -0.0005  0.0019  0.0105 -0.0311  0.1008  0.9184
 SCF Error: norm([F,P])=      0.062117061218, max([F,P])=      0.023065151090
 orbitals (Q,E):
 ---------------
 S :1...3            ( 2.00    -6.3871)  ( 2.00    -0.5116)  ( 0.00     0.1144)
 P :1...3            ( 6.00    -4.5623)  ( 3.00    -0.2008)  ( 0.00     0.0809)
 D :1...1            ( 0.00     0.3849)

 CYCLE    9
  SDIIS (wt  0.976):  0.0000  0.0000 -0.0001 -0.0000 -0.0006  0.0067  0.1535  0.8406
 A-DIIS (wt  0.024):  0.0000  0.0000  0.0000  0.0000  0.0000  0.0000  0.0000  1.0000
  DIIS coefficients:  0.0000  0.0000 -0.0001 -0.0000 -0.0006  0.0065  0.1498  0.8445
 SCF Error: norm([F,P])=      0.008957667695, max([F,P])=      0.003406470825
 orbitals (Q,E):
 ---------------
 S :1...3            ( 2.00    -6.3923)  ( 2.00    -0.5136)  ( 0.00     0.1136)
 P :1...3            ( 6.00    -4.5677)  ( 3.00    -0.2024)  ( 0.00     0.0804)
 D :1...1            ( 0.00     0.3830)

 CYCLE   10
  SDIIS (wt  1.000): -0.0000  0.0000 -0.0000 -0.0000  0.0000  0.0002  0.0031  0.0372  0.9595
  DIIS coefficients: -0.0000  0.0000 -0.0000 -0.0000  0.0000  0.0002  0.0031  0.0372  0.9595
 SCF Error: norm([F,P])=      0.000163653333, max([F,P])=      0.000063717608
 orbitals (Q,E):
 ---------------
 S :1...3            ( 2.00    -6.3922)  ( 2.00    -0.5136)  ( 0.00     0.1136)
 P :1...3            ( 6.00    -4.5676)  ( 3.00    -0.2024)  ( 0.00     0.0804)
 D :1...1            ( 0.00     0.3830)

 CYCLE   11
  SDIIS (wt  1.000):  0.0000  0.0000 -0.0000 -0.0002 -0.0016 -0.0226  1.0244
  DIIS coefficients:  0.0000  0.0000 -0.0000 -0.0002 -0.0016 -0.0226  1.0244
 SCF Error: norm([F,P])=      0.000000175567, max([F,P])=      0.000000090743
 orbitals (Q,E):
 ---------------
 S :1...3            ( 2.00    -6.3922)  ( 2.00    -0.5136)  ( 0.00     0.1136)
 P :1...3            ( 6.00    -4.5676)  ( 3.00    -0.2024)  ( 0.00     0.0804)
 D :1...1            ( 0.00     0.3830)

 CYCLE   12
  SDIIS (wt  1.000): -0.0000 -0.0000 -0.0005 -0.0247  1.0252
  DIIS coefficients: -0.0000 -0.0000 -0.0005 -0.0247  1.0252
 SCF Error: norm([F,P])=      0.000000002285, max([F,P])=      0.000000001028
 orbitals (Q,E):
 ---------------
 S :1...3            ( 2.00    -6.3922)  ( 2.00    -0.5136)  ( 0.00     0.1136)
 P :1...3            ( 6.00    -4.5676)  ( 3.00    -0.2024)  ( 0.00     0.0804)
 D :1...1            ( 0.00     0.3830)

 SCF CONVERGED

 CYCLE   13
1
 ***************************************************************************************************



                                                *******************
                                                *  R E S U L T S  *
                                                *******************
  
 *** Using FIT density in Focky
  SDIIS (wt  1.000):  0.0000  0.0017  0.0326  0.9657
  DIIS coefficients:  0.0000  0.0017  0.0326  0.9657
 SCF Error: norm([F,P])=      0.000000000342, max([F,P])=      0.000000000172

 Scaled ZORA Orbital Energies, per Irrep and Spin:
 =================================================
                        Occup              E (au)              E (eV)       Diff (eV) with prev. cycle
                        -----      --------------------        ------       --------------------------
 S
               1        2.000     -0.63922369009056E+01      -173.942               8.75E-09
               2        2.000     -0.51357095789531E+00       -13.975               6.90E-09
               3        0.000      0.11360419341918E+00         3.091
               4        0.000      0.13218598554508E+01        35.970
               5        0.000      0.10430275582036E+02       283.822
 P
               1        6.000     -0.45676340295409E+01      -124.292               8.74E-09
               2        3.000     -0.20235270966723E+00        -5.506               5.88E-09
               3        0.000      0.80400995303665E-01         2.188
               4        0.000      0.71612464912880E+00        19.487
               5        0.000      0.95392466931961E+01       259.576
 D
               1        0.000      0.38299165710671E+00        10.422


 Partially Occupied:
               2 P                -0.20235270966723E+00
  
 HOMO :        2 S                -0.51357095789531E+00
 LUMO :        3 P                 0.80400995303665E-01
  


 Orbital Energies, all Irreps
 ========================================

 Irrep        no.  (spin)   Occup              E (au)                E (eV)
 ---------------------------------------------------------------------------
 S             1             2.00       -0.63922369009056E+01      -173.9416
 P             1             6.00       -0.45676340295409E+01      -124.2916
 S             2             2.00       -0.51357095789531E+00       -13.9750
 P             2             3.00       -0.20235270966723E+00        -5.5063
 P             3             0.00        0.80400995303665E-01         2.1878
 S             3             0.00        0.11360419341918E+00         3.0913
 D             1             0.00        0.38299165710671E+00        10.4217
 P             4             0.00        0.71612464912880E+00        19.4867
 S             4             0.00        0.13218598554508E+01        35.9696
 P             5             0.00        0.95392466931961E+01       259.5761
 S             5             0.00        0.10430275582036E+02       283.8222


 Scaled ZORA Orbital Energies of the Core Orbitals:
 ==================================================

 (Note that the atoms are grouped by atomtype, see the labels, and may hence NOT be in input order)

 AtomType  Orbital  Atom                   E (au)                        E (eV)
 --------  -------  ----           --------------------        ----------------
 P           1S        1          -0.76588588395026E+02               -2084.082



 =======================================
 M U L L I K E N   P O P U L A T I O N S
 =======================================
  
 The survey below gives for each atom:
 a) the total charge (Z minus electrons)
 b) the net spin polarization (nr of electrons spin-A minus spin-B)
 c) for each spin the atomic electron valence density (integrated) per L-value.

 Atom              Charge    Spin density          S         P         D         F
 ----              ------    ------------       ------    ------    ------    ------
 1 P              -0.0000                       4.0000    9.0000    0.0000    0.0000

 Populations of individual BAS functions
 ----------------------------------------
 1 P           -0.0481  1.4990  0.5077  0.7973  0.7973  0.7973  1.2052  1.2052  1.2052  0.3372
                1.0986  0.6057  0.1369  0.1369  0.1369  0.4144  0.4144  0.4144  0.4462  0.4462
                0.4462  0.0000  0.0000  0.0000  0.0000  0.0000  0.0000

 Gross Charges per Atom (Z minus electrons)
 ==========================================
            -0.0000
 Net Total: -0.00000000



 =======================================================================
 Electrostatic potential at the Nuclei due to electrons and other nuclei
 =======================================================================
  
         Atom                  Potential
         ----                  ---------
     1)   P                  54.30955117
 
 
 ========================
 No memory problems found
 ========================
 
 Maximum number of active allocate calls:         389
 
 *******************************************************************************

                             A D F   E X I T
 NORMAL TERMINATION



 =================
 Timing Statistics
 =================
  
 Total Used :                     CPU=        0.59      System=        0.03     Elapsed=        0.65

 Calls  Section                     ( Mean, Percentage )
 ---------------------------------------------------------------------------------------------------
     3  ><      ................      0.00    0.00             0.00   14.29             0.00    0.66
     1  INIT    ................      0.07   11.56             0.00   14.29             0.08   11.57
     1  GEOMET  ................      0.02    2.72             0.00   14.29             0.03    4.00
     1  INPUTA  ................      0.00    0.68             0.00    0.00             0.00    0.56
     1  MAINSY  ................      0.01    1.36             0.00   14.29             0.02    2.38
     1  SYMFIT  ................      0.00    0.00             0.00    0.00             0.00    0.26
     1  CORORT  ................      0.00    0.00             0.00    0.00             0.00    0.26
     1  SYMORB  ................      0.00    0.68             0.00    0.00             0.00    0.15
     1  CLSMAT  ................      0.00    0.68             0.00    0.00             0.01    0.90
     1  ORTHON  ................      0.00    0.68             0.00    0.00             0.01    0.87
     1  GENPT   ................      0.02    3.40             0.00    0.00             0.02    2.94
     1  PTBAS   ................      0.00    0.68             0.00    0.00             0.01    0.82
    13  FOCKY   ................      0.03   62.58             0.00   28.57             0.03   60.58
    13  FOCKTR  ................      0.00    1.36             0.00    0.00             0.00    1.17
    13  SDIIS   ................      0.00    6.80             0.00    0.00             0.00    5.84
     1  COREPS  ................      0.02    3.40             0.00   14.29             0.02    3.76
     1  POPAN   ................      0.00    0.68             0.00    0.00             0.01    0.79
     1  DEBYE   ................      0.00    0.68             0.00    0.00             0.00    0.31
     1  EXIT PROCEDURE .........      0.01    2.04             0.00    0.00             0.01    2.19


 Currently Open Files (EXIT00)
 ====================

 Unit    Access Format  Status   Type       Ident (file)
 -------------------------------------------------------
   3      SEQ    FORM   TRANSP  NORMAL      LOGFILE
                                          ( logfile )

 ***************************************************************************************************
 (LOGFILE)
 <Feb11-2023> <15:37:36>  DIRAC 2019  RunTime: Feb11-2023 15:37:36  Nodes: 1  Procs: 1
 <Feb11-2023> <15:37:36>  NORMAL TERMINATION
 <Feb11-2023> <15:37:36>  END
 <Feb11-2023> <15:37:36>  ADF 2019  RunTime: Feb11-2023 15:37:36  Nodes: 1  Procs: 1
 <Feb11-2023> <15:37:36>  Hydrogen (TZP)
 <Feb11-2023> <15:37:36>  RunType   : CREATE
 <Feb11-2023> <15:37:36>  Net Charge: 0 (Nuclei minus Electrons)
 <Feb11-2023> <15:37:36>  Symmetry  : ATOM
  Coordinates
    Atom         X           Y           Z   (Angstrom)
    1.H         0.000000    0.000000    0.000000
 <Feb11-2023> <15:37:36>  >>>> CORORT
 <Feb11-2023> <15:37:36>  >>>> CLSMAT
 <Feb11-2023> <15:37:36>  >>>> ORTHON
 <Feb11-2023> <15:37:36>  >>>> GENPT
 <Feb11-2023> <15:37:36>  Block Length=  64
 <Feb11-2023> <15:37:36>  >>>> PTBAS
 <Feb11-2023> <15:37:36>  >>>> CYCLE
 <Feb11-2023> <15:37:36>              |Error|         MaxErr       Wt(A-DIIS)
 <Feb11-2023> <15:37:36>      1      0.00000000      0.00000000
 <Feb11-2023> <15:37:36>      2      0.03153787      0.03011049
 <Feb11-2023> <15:37:36>      3      0.00861799      0.00834303    100.0
 <Feb11-2023> <15:37:36>      4      0.00173235      0.00171862      0.7
 <Feb11-2023> <15:37:36>      5      0.00004367      0.00003977      0.0
 <Feb11-2023> <15:37:36>      6      0.00000238      0.00000216      0.0
 <Feb11-2023> <15:37:36>      7      0.00000001      0.00000001      0.0
 <Feb11-2023> <15:37:36>  SCF converged
 <Feb11-2023> <15:37:36>      8      0.00000000      0.00000000      0.0
 <Feb11-2023> <15:37:36>  >>>> POPAN
 <Feb11-2023> <15:37:36>  >>>> DEBYE
 <Feb11-2023> <15:37:36>  NORMAL TERMINATION
 <Feb11-2023> <15:37:36>  END
 <Feb11-2023> <15:37:36>  DIRAC 2019  RunTime: Feb11-2023 15:37:36  Nodes: 1  Procs: 1
 <Feb11-2023> <15:37:36>  NORMAL TERMINATION
 <Feb11-2023> <15:37:36>  END
 <Feb11-2023> <15:37:37>  ADF 2019  RunTime: Feb11-2023 15:37:37  Nodes: 1  Procs: 1
 <Feb11-2023> <15:37:37>  Phosphorus (TZP, 1s frozen)
 <Feb11-2023> <15:37:37>  RunType   : CREATE
 <Feb11-2023> <15:37:37>  Net Charge: 0 (Nuclei minus Electrons)
 <Feb11-2023> <15:37:37>  Symmetry  : ATOM
  Coordinates
    Atom         X           Y           Z   (Angstrom)
    1.P         0.000000    0.000000    0.000000
 <Feb11-2023> <15:37:37>  >>>> CORORT
 <Feb11-2023> <15:37:37>  >>>> CLSMAT
 <Feb11-2023> <15:37:37>  >>>> ORTHON
 <Feb11-2023> <15:37:37>  >>>> GENPT
 <Feb11-2023> <15:37:37>  Block Length=  76
 <Feb11-2023> <15:37:37>  >>>> PTBAS
 <Feb11-2023> <15:37:37>  >>>> CYCLE
 <Feb11-2023> <15:37:37>              |Error|         MaxErr       Wt(A-DIIS)
 <Feb11-2023> <15:37:37>      1      0.00000000      0.00000000
 <Feb11-2023> <15:37:37>      2     18.57419976      5.72946042    100.0
 <Feb11-2023> <15:37:37>      3      7.89224634      2.59295418    100.0
 <Feb11-2023> <15:37:37>      4      4.38717664      1.76162665    100.0
 <Feb11-2023> <15:37:37>      5      1.32434558      0.46695615    100.0
 <Feb11-2023> <15:37:37>      6      0.89465661      0.32855234    100.0
 <Feb11-2023> <15:37:37>      7      0.15275323      0.05676890     56.3
 <Feb11-2023> <15:37:37>      8      0.06211706      0.02306515     22.3
 <Feb11-2023> <15:37:37>      9      0.00895767      0.00340647      2.4
 <Feb11-2023> <15:37:37>     10      0.00016365      0.00006372      0.0
 <Feb11-2023> <15:37:37>     11      0.00000018      0.00000009      0.0
 <Feb11-2023> <15:37:37>     12      0.00000000      0.00000000      0.0
 <Feb11-2023> <15:37:37>  SCF converged
 <Feb11-2023> <15:37:37>     13      0.00000000      0.00000000      0.0
 <Feb11-2023> <15:37:37>  >>>> POPAN
 <Feb11-2023> <15:37:37>  >>>> DEBYE
 <Feb11-2023> <15:37:37>  NORMAL TERMINATION
 <Feb11-2023> <15:37:37>  END

 *******************************************************************************
 *                                                                             *
 *  -------------------------------------                                      *
 *   Amsterdam Density Functional  (ADF)         2019                          *
 *  -------------------------------------                                      *
 *                                               r74351 2019-04-25             *
 *                                                                             *
 *                                                                             *
 *                            =====================                            *
 *                            |                   |                            *
 *                            |     D I R A C     |                            *
 *                            |                   |                            *
 *                            =====================                            *
 *                                                                             *
 *                                                                             *
 *   Online information and documentation:  https://www.scm.com/support/       *
 *   E-mail:  support@scm.com   info@scm.com                                   *
 *                                                                             *
 *   Scientific publications using ADF results must be properly referenced     *
 *   See the User Manuals (or the web site) for recommended citations          *
 *   The terms and conditions of the End User License Agreement apply to       *
 *   the use of ADF, https://www.scm.com/license-terms/                        *
 *                                                                             *
 **********************  x86_64_linux_intel / intelmpi  ************************
 
 Licensed to: Dr. Carles Bo / Institute of Chemical Research of Catalonia ( (ICIQ) / Tarragona / Spain 2022-11-28 14:37:29
 SCM User ID: u7609
  
 DIRAC 2019  RunTime: Feb11-2023 15:37:37  Nodes: 1  Procs: 1

 Temporary files are created in /scratch/kid_0.1574639161

1
 MOLYBDENUM ATOM 3d CORE RELATIVISTIC, Point Nuc, A and c fro
 N J RN H ZN XION ANUC CLIGHT
 5000   15100.00000000197.36710137 42.00000000  0.00000000   97.905406  0.1370360E+03
  PH   PHI     EPS        DEL        DELRVR
  0.30  0.30     2500.00  0.00001000  0.00001000
 IDIRC  NC1  NDEBU NPRIN  IPUN IRCOR IWCOR
   1   300     0     0     0     0     9
   XALPHA      XLATTER      RNUC
  0.70000000  0.00000000  0.00000000 Point Charge
   XN   XL   XJ      XE          XZ      XDELL
  1.0  0.0  0.5   -1500.000       2.000     0.00000
  2.0  0.0  0.5    -325.000       2.000     0.00000
  2.0  1.0  0.5    -325.000       2.000     0.00000
  2.0  1.0  1.5    -325.000       4.000     0.00000
  3.0  0.0  0.5     -70.000       2.000     0.00000
  3.0  1.0  0.5     -70.000       2.000     0.00000
  3.0  1.0  1.5     -70.000       4.000     0.00000
  3.0  2.0  1.5     -60.000       4.000     0.00000
  3.0  2.0  2.5     -60.000       6.000     0.00000
  4.0  0.0  0.5     -10.000       2.000     0.00000
  4.0  1.0  0.5     -10.000       2.000     0.00000
  4.0  1.0  1.5     -10.000       4.000     0.00000
  4.0  2.0  1.5      -1.000       4.000     0.00000
  4.0  2.0  2.5      -1.000       1.000     0.00000
  5.0  0.0  0.5      -0.500       1.000     0.00000
 ICORP=  0  NPCL=  0  DEMP=0.00  PEPS=0.000000
 R(1)=  0.1000000E-08 D=  0.1005080E+01 RNUC=  0.0000000E+00
 converged at cycle   41  DENSITY AVERAGING    0.2400
  MAXIMUM ERROR IN R.V(R) IS   0.93203452E-05
 Q,EY,EV,EZ,ESUM,ETOT,RHO  0.420000E+02 -0.161898E+03 -0.662509E+04 -0.978397E+04 -0.242700E+04 -0.404691E+04  0.342495E-11


 DIRAC CALCULATION
1                    MOLYBDENUM ATOM 3d CORE RELATIVISTIC, Point Nuc, A and c from libtc


 EXCHANGE COEFFICIENT=  0.7000000           TAIL CORRECTION=  0.           NUCLEAR RADIUS=  0.000E+00
0                       ORBITAL    N    L    J     ELECTRONS     EIGENVALUE                DELTA OF EIGENV.

                          1S1/2  1.0  0.0  0.5     2.000       -0.7276812E+03                 0.2822496E-04
                          2S1/2  2.0  0.0  0.5     2.000       -0.1028194E+03                 0.1725465E-04
                          2P1/2  2.0  1.0  0.5     2.000       -0.9468016E+02                 0.1864325E-04
                          2P3/2  2.0  1.0  1.5     4.000       -0.9076266E+02                 0.1832345E-04
                          3S1/2  3.0  0.0  0.5     2.000       -0.1747094E+02                 0.5979346E-05
                          3P1/2  3.0  1.0  0.5     2.000       -0.1436574E+02                 0.6275079E-05
                          3P3/2  3.0  1.0  1.5     4.000       -0.1371946E+02                 0.5984426E-05
                          3D3/2  3.0  2.0  1.5     4.000       -0.8203697E+01                 0.6709395E-05
                          3D5/2  3.0  2.0  2.5     6.000       -0.8081013E+01                 0.6610438E-05
                          4S1/2  4.0  0.0  0.5     2.000       -0.2338238E+01                 0.2446887E-06
                          4P1/2  4.0  1.0  0.5     2.000       -0.1452045E+01                 0.2971982E-06
                          4P3/2  4.0  1.0  1.5     4.000       -0.1358936E+01                 0.3186552E-06
                          4D3/2  4.0  2.0  1.5     4.000       -0.1184046E+00                 0.3378248E-06
                          4D5/2  4.0  2.0  2.5     1.000       -0.1108976E+00                 0.3342679E-06
                          5S1/2  5.0  0.0  0.5     1.000       -0.1320069E+00                 0.9757102E-07


                                        NUCLEAR CHARGE=   42.000000
                            INTEGRAL OF CHARGE DENSITY=   42.000000
                           SUM OF THE ORBITAL ENERGIES=  -2426.9970
                                          TOTAL ENERGY=  -4046.9128
                                        KINETIC ENERGY=   4198.0886
                             NUCLEAR ATTRACTION ENERGY=  -9783.9685
                             ELECTRON REPULSION ENERGY=   1660.3903
                                       EXCHANGE ENERGY=   -121.4232

 *******************************************************************************

                             D I R A C   E X I T
 NORMAL TERMINATION



 =================
 Timing Statistics
 =================
  
 Total Used :                     CPU=        0.46      System=        0.00     Elapsed=        0.47

 Calls  Section                     ( Mean, Percentage )
 ---------------------------------------------------------------------------------------------------
     2  ><      ................      0.00    0.00             0.00    0.00             0.00    0.00
     1  EXIT PROCEDURE .........      0.46  100.00             0.00  100.00             0.47  100.00


 Currently Open Files (EXIT00)
 ====================

 Unit    Access Format  Status   Type       Ident (file)
 -------------------------------------------------------
   3      SEQ    FORM   TRANSP  NORMAL      LOGFILE
                                          ( logfile )
 
Create Mo   file=TZP-Mo.3d
XC
  GGA PBE
End
relativistic ZORA
Corepotentials t12.rel
End

 *******************************************************************************
 *                                                                             *
 *  -------------------------------------                                      *
 *   Amsterdam Density Functional  (ADF)         2019                          *
 *  -------------------------------------                                      *
 *                                               r74351 2019-04-25             *
 *                                                                             *
 *                                                                             *
 *                              =================                              *
 *                              |               |                              *
 *                              |     A D F     |                              *
 *                              |               |                              *
 *                              =================                              *
 *                                                                             *
 *                                                                             *
 *   Online information and documentation:  https://www.scm.com/support/       *
 *   E-mail:  support@scm.com   info@scm.com                                   *
 *                                                                             *
 *   Scientific publications using ADF results must be properly referenced     *
 *   See the User Manuals (or the web site) for recommended citations          *
 *   The terms and conditions of the End User License Agreement apply to       *
 *   the use of ADF, https://www.scm.com/license-terms/                        *
 *                                                                             *
 **********************  x86_64_linux_intel / intelmpi  ************************
 
 Licensed to: Dr. Carles Bo / Institute of Chemical Research of Catalonia ( (ICIQ) / Tarragona / Spain 2022-11-28 14:37:29
 SCM User ID: u7609
  
 ADF 2019  RunTime: Feb11-2023 15:37:38  Nodes: 1  Procs: 1

 Temporary files are created in /scratch/kid_0.1285068069

 Molybdenum (TZP, 3d frozen)



 ===========================
 A T T A C H E D   F I L E S
 ===========================
  
 CREATE - Data File:    TZP-Mo.3d
                        Molybdenum (TZP, 3d frozen)
 Core Potentials:
         file : t12.rel



 ===============================
 M O D E L   P A R A M E T E R S
 ===============================
  
 DENSITY FUNCTIONAL POTENTIAL (scf)
    LDA:                               PW92                                    == Not Default ==
    Gradient Corrections:              PBEc PBEx                               == Not Default ==

 SPIN  (restricted / unrestr.)
    Molecule:                          Restricted                               

 OTHER ASPECTS
    Relativistic Corrections:          scalar (ZORA,MAPA)                      == Not Default ==

    Nuclear Charge Density Model:      Point Charge Nuclei                      
    Core Treatment:                    Frozen Orbital(s)                        

    Hyperfine or Zeeman Interaction:   ---                                      



 =====================================
 S Y M M E T R Y ,   E L E C T R O N S
 =====================================
  
 Symmetry: ATOM

 Irreducible Representations, including subspecies
 -------------------------------------------------
 S
 P:x  P:y  P:z
 D:z2  D:x2-y2  D:xy  D:xz  D:yz
 F:z3  F:z  F:xyz  F:z2x  F:z2y  F:x  F:y


 Configuration of Valence Electrons
 ==================================

          Occupation Numbers
          -------------------------------------------------
 S        2 1
 P        6
 D        5
 F        0
          -------------------------------------------------

 Total:   14

 Net Charge: 0 (Nuclei minus Electrons)

 Preset values for MO occupations will be applied through SCF cycle no. 1000000
 Thereafter, the program will assign electrons to MOs that are spatially
 similar to the occupied MOs in a "reference" cycle ("KeepOrbitals").
 The reference cycle is always the PREVIOUS cycle: it will evolve with
 the SCF procedure.



 ================================
 (Slater-type)  F U N C T I O N S  ***  (Basis and Fit)  ***
 ================================
  

 Atom Type    1  (Mo)
 ==============

 Valence Basis Sets:  18
 -----------------------
   1 S   30.500000
   2 S   17.750000
   3 S    8.350000
   2 P   18.600000
   3 P    8.700000
   3 D   10.050000
   4 S    5.100000
   4 S    3.300000
   5 S    2.150000
   5 S    1.350000
   5 S    0.870000
   4 P    4.950000
   4 P    3.300000
   4 P    2.300000
   4 D    3.500000
   4 D    1.850000
   4 D    0.970000
   5 P    1.350000

 Frozen Core Shells
 ------------------
    S:  3
    P:  2
    D:  1


 BAS: List of all Elementary Cartesian Basis Functions
 =====================================================

 The numbering in the list below (to the right of the function characteristics) is referred
 to in print-outs of MO eigenvectors and Mulliken populations in the BAS representation
 (as contrasted to the SFO representation).

 Notes:
 1. The functions are characterized by a polynomial prefactor (powers of x,y,z and r) and
    an exponential decay factor alpha.
 2. Since the basis sets are specific for an atom TYPE, the individual functions occur on
    all atoms of that type.
 3. The word 'Core' in the left margin signals that it is a Core Function (CF) : not a
    degree of freedom in the valence set, but only used to ensure orthogonalization of
    the other valence basis functions on the frozen Core Orbitals.


 (power of) X  Y  Z  R     Alpha  on Atom
            ==========     =====     ==========

 Mo                                   1
                                  ---------------------------------------------------------------------------
    Core    0  0  0  0    30.500      1
    Core    0  0  0  1    17.750      2
    Core    0  0  0  2     8.350      3
    Core    1  0  0  0    18.600      4
    Core    0  1  0  0    18.600      5
    Core    0  0  1  0    18.600      6
    Core    1  0  0  1     8.700      7
    Core    0  1  0  1     8.700      8
    Core    0  0  1  1     8.700      9
    Core    2  0  0  0    10.050     10
    Core    1  1  0  0    10.050     11
    Core    1  0  1  0    10.050     12
    Core    0  2  0  0    10.050     13
    Core    0  1  1  0    10.050     14
    Core    0  0  2  0    10.050     15
            0  0  0  3     5.100     16
            0  0  0  3     3.300     17
            0  0  0  4     2.150     18
            0  0  0  4     1.350     19
            0  0  0  4     0.870     20
            1  0  0  2     4.950     21
            0  1  0  2     4.950     22
            0  0  1  2     4.950     23
            1  0  0  2     3.300     24
            0  1  0  2     3.300     25
            0  0  1  2     3.300     26
            1  0  0  2     2.300     27
            0  1  0  2     2.300     28
            0  0  1  2     2.300     29
            2  0  0  1     3.500     30
            1  1  0  1     3.500     31
            1  0  1  1     3.500     32
            0  2  0  1     3.500     33
            0  1  1  1     3.500     34
            0  0  2  1     3.500     35
            2  0  0  1     1.850     36
            1  1  0  1     1.850     37
            1  0  1  1     1.850     38
            0  2  0  1     1.850     39
            0  1  1  1     1.850     40
            0  0  2  1     1.850     41
            2  0  0  1     0.970     42
            1  1  0  1     0.970     43
            1  0  1  1     0.970     44
            0  2  0  1     0.970     45
            0  1  1  1     0.970     46
            0  0  2  1     0.970     47
            1  0  0  3     1.350     48
            0  1  0  3     1.350     49
            0  0  1  3     1.350     50

 Total number of charge fitting functions (nprimf)       230
 Total number of Cartesian basis functions (naos)         50
 Total number of Cartesian core functions  (ncos)         15



 BAS: List of all Elementary Cartesian Basis Functions
 =====================================================

 The numbering in the list below (to the right of the function characteristics) is referred
 to in print-outs of MO eigenvectors and Mulliken populations in the BAS representation
 (as contrasted to the SFO representation).

 Notes:
 1. The functions are characterized by a polynomial prefactor (powers of x,y,z and r) and
    an exponential decay factor alpha.
 2. Since the basis sets are specific for an atom TYPE, the individual functions occur on
    all atoms of that type.
 3. The word 'Core' in the left margin signals that it is a Core Function (CF) : not a
    degree of freedom in the valence set, but only used to ensure orthogonalization of
    the other valence basis functions on the frozen Core Orbitals.


 (power of) X  Y  Z  R     Alpha  on Atom
            ==========     =====     ==========

 Mo                                   1
                                  ---------------------------------------------------------------------------
    Core    0  0  0  0    30.500      1
    Core    0  0  0  1    17.750      2
    Core    0  0  0  2     8.350      3
    Core    1  0  0  0    18.600      4
    Core    0  1  0  0    18.600      5
    Core    0  0  1  0    18.600      6
    Core    1  0  0  1     8.700      7
    Core    0  1  0  1     8.700      8
    Core    0  0  1  1     8.700      9
    Core    2  0  0  0    10.050     10
    Core    1  1  0  0    10.050     11
    Core    1  0  1  0    10.050     12
    Core    0  2  0  0    10.050     13
    Core    0  1  1  0    10.050     14
    Core    0  0  2  0    10.050     15
            0  0  0  3     5.100     16
            0  0  0  3     3.300     17
            0  0  0  4     2.150     18
            0  0  0  4     1.350     19
            0  0  0  4     0.870     20
            1  0  0  2     4.950     21
            0  1  0  2     4.950     22
            0  0  1  2     4.950     23
            1  0  0  2     3.300     24
            0  1  0  2     3.300     25
            0  0  1  2     3.300     26
            1  0  0  2     2.300     27
            0  1  0  2     2.300     28
            0  0  1  2     2.300     29
            2  0  0  1     3.500     30
            1  1  0  1     3.500     31
            1  0  1  1     3.500     32
            0  2  0  1     3.500     33
[...]
 <Feb11-2023> <20:39:30>      5      0.46338199      0.04393239    100.0
 <Feb11-2023> <20:39:38>      6      0.12986205      0.01488996     14.0
 <Feb11-2023> <20:39:46>      7      0.11772109      0.01335054     12.5
 <Feb11-2023> <20:39:54>      8      0.04486781      0.00529880      4.3
 <Feb11-2023> <20:40:02>      9      0.02272144      0.00241001      1.4
 <Feb11-2023> <20:40:10>     10      0.00973225      0.00118228      0.2
 <Feb11-2023> <20:40:18>     11      0.00312371      0.00027797      0.0
 <Feb11-2023> <20:40:26>     12      0.00155324      0.00014631      0.0
 <Feb11-2023> <20:40:34>     13      0.00124129      0.00013096      0.0
 <Feb11-2023> <20:40:41>     14      0.00084881      0.00008730      0.0
 <Feb11-2023> <20:40:49>     15      0.00021454      0.00002329      0.0
 <Feb11-2023> <20:40:57>     16      0.00022123      0.00002044      0.0
 <Feb11-2023> <20:41:05>     17      0.00003464      0.00000268      0.0
 <Feb11-2023> <20:41:13>     18      0.00006770      0.00000709      0.0
 <Feb11-2023> <20:41:21>     19      0.00001956      0.00000173      0.0
 <Feb11-2023> <20:41:28>     20      0.00003622      0.00000381      0.0
 <Feb11-2023> <20:41:36>     21      0.00002059      0.00000202      0.0
 <Feb11-2023> <20:41:44>     22      0.00001127      0.00000161      0.0
 <Feb11-2023> <20:41:52>     23      0.00000138      0.00000012      0.0
 <Feb11-2023> <20:41:54>  SCF converged
 <Feb11-2023> <20:42:00>     24      0.00000111      0.00000012      0.0
 <Feb11-2023> <20:42:02>  >>>> TOTEN
 <Feb11-2023> <20:42:14>  >>>> POPAN
 <Feb11-2023> <20:42:14>  >>>> DEBYE
 <Feb11-2023> <20:42:14>  >>>> ENGRAD
 <Feb11-2023> <20:43:28>  current energy                              -14.27641494 Hartree
 <Feb11-2023> <20:43:28>  energy change                      -0.00003293     0.00100000    T
 <Feb11-2023> <20:43:28>  constrained gradient max            0.00123945     0.00100000    F
 <Feb11-2023> <20:43:28>  constrained gradient rms            0.00042659     0.00066667    T
 <Feb11-2023> <20:43:28>  gradient max                        0.00123945
 <Feb11-2023> <20:43:28>  gradient rms                        0.00042659
 <Feb11-2023> <20:43:28>  cart. step max                      0.00248751     0.01000000    T
 <Feb11-2023> <20:43:28>  cart. step rms                      0.00088616     0.00666667    T
  Coordinates in Geometry Cycle 63
    Atom         X           Y           Z   (Angstrom)
    1.Mo        0.342868   -3.050063   -1.858121
    2.O         0.036316    0.143145   -5.362254
    3.Mo       -0.505293    3.100674    1.722080
    4.Mo        3.072602   -0.697121    1.929411
    5.Mo       -0.052927   -0.094272   -3.622948
    6.Mo        2.514755    2.522494    0.000000
    7.Mo       -0.052927   -0.094272    3.622948
    8.O         3.815768    3.698015    0.000000
    9.O         0.036316    0.143145    5.362254
   10.Mo        0.342868   -3.050063    1.858121
   11.Mo        3.072602   -0.697121   -1.929411
   12.Mo       -0.505293    3.100674   -1.722080
   13.O         0.452674   -0.724461   -1.282830
   14.O        -1.700699   -0.046501    0.000000
   15.O         0.305698    1.484209    0.000000
   16.O         0.452674   -0.724461    1.282830
   17.O        -1.385394   -3.159878    1.600948
   18.O         0.092723    1.727063   -2.977615
   19.O        -1.771266   -0.266945    3.302626
   20.O         2.970091    1.378294   -1.349476
   21.O        -2.157116    2.071833   -1.573861
   22.O         3.325228   -0.797908    0.000000
   23.O        -2.157116    2.071833    1.573861
   24.O         0.865935   -3.247247    0.000000
   25.O         0.092723    1.727063    2.977615
   26.O        -1.385394   -3.159878   -1.600948
   27.O         2.970091    1.378294    1.349476
   28.O        -1.771266   -0.266945   -3.302626
   29.O         2.107720   -0.087735   -3.381859
   30.O        -1.009179    4.369534   -2.806066
   31.O         1.287894    3.530082   -1.341268
   32.O         0.293240   -2.040232    3.519063
   33.O         2.543549   -2.427987   -2.039125
   34.O        -0.973357    3.914670    0.000000
   35.O         2.543549   -2.427987    2.039125
   36.P        -0.162386   -0.038980    0.000000
   37.O         0.774194   -4.635085    2.490798
   38.O         2.107720   -0.087735    3.381859
   39.O         0.293240   -2.040232   -3.519063
   40.O         1.287894    3.530082    1.341268
   41.O         0.774194   -4.635085   -2.490798
   42.O         4.729224   -0.711368   -2.510833
   43.O        -1.009179    4.369534    2.806066
   44.O         4.729224   -0.711368    2.510833
   45.H        -2.061382    1.200606    1.068720
   46.H        -2.061382    1.200606   -1.068720
 <Feb11-2023> <20:43:28>  >>>> CORORT
 <Feb11-2023> <20:43:28>  >>>> CLSMAT
 <Feb11-2023> <20:43:28>  >>>> ORTHON
 <Feb11-2023> <20:43:28>  >>>> GENPT
 <Feb11-2023> <20:43:29>  Block Length= 128
 <Feb11-2023> <20:43:29>  >>>> PTBAS
 <Feb11-2023> <20:43:41>  combining surface points...
 <Feb11-2023> <20:43:41>  combining surface points...
 <Feb11-2023> <20:43:41>  combining surface points...
 <Feb11-2023> <20:43:41>  >>>> CYCLE
 <Feb11-2023> <20:43:52>              |Error|         MaxErr       Wt(A-DIIS)
 <Feb11-2023> <20:43:52>      1      0.18997352      0.01578879
 <Feb11-2023> <20:44:01>      2      0.81700111      0.07164739    100.0
 <Feb11-2023> <20:44:09>      3      0.21880411      0.01544508    100.0
 <Feb11-2023> <20:44:18>      4      0.19543792      0.01705940     16.2
 <Feb11-2023> <20:44:26>      5      0.46402075      0.04384552    100.0
 <Feb11-2023> <20:44:34>      6      0.13176682      0.01517958     14.3
 <Feb11-2023> <20:44:42>      7      0.11810938      0.01343580     12.6
 <Feb11-2023> <20:44:50>      8      0.04525206      0.00533350      4.4
 <Feb11-2023> <20:44:57>      9      0.02279711      0.00240997      1.4
 <Feb11-2023> <20:45:05>     10      0.00972903      0.00118650      0.2
 <Feb11-2023> <20:45:13>     11      0.00312354      0.00027678      0.0
 <Feb11-2023> <20:45:21>     12      0.00155765      0.00014692      0.0
 <Feb11-2023> <20:45:29>     13      0.00122781      0.00012961      0.0
 <Feb11-2023> <20:45:37>     14      0.00083605      0.00008589      0.0
 <Feb11-2023> <20:45:45>     15      0.00021231      0.00002316      0.0
 <Feb11-2023> <20:45:53>     16      0.00022868      0.00002117      0.0
 <Feb11-2023> <20:46:01>     17      0.00003512      0.00000270      0.0
 <Feb11-2023> <20:46:08>     18      0.00007281      0.00000765      0.0
 <Feb11-2023> <20:46:16>     19      0.00002007      0.00000182      0.0
 <Feb11-2023> <20:46:24>     20      0.00003630      0.00000384      0.0
 <Feb11-2023> <20:46:32>     21      0.00002097      0.00000201      0.0
 <Feb11-2023> <20:46:40>     22      0.00001180      0.00000169      0.0
 <Feb11-2023> <20:46:47>     23      0.00000154      0.00000014      0.0
 <Feb11-2023> <20:46:50>  SCF converged
 <Feb11-2023> <20:46:55>     24      0.00000112      0.00000011      0.0
 <Feb11-2023> <20:46:58>  >>>> TOTEN
 <Feb11-2023> <20:47:09>  >>>> POPAN
 <Feb11-2023> <20:47:09>  >>>> DEBYE
 <Feb11-2023> <20:47:09>  >>>> ENGRAD
 <Feb11-2023> <20:48:23>  current energy                              -14.27643218 Hartree
 <Feb11-2023> <20:48:23>  energy change                      -0.00001724     0.00100000    T
 <Feb11-2023> <20:48:23>  constrained gradient max            0.00115011     0.00100000    F
 <Feb11-2023> <20:48:23>  constrained gradient rms            0.00034056     0.00066667    T
 <Feb11-2023> <20:48:23>  gradient max                        0.00115011
 <Feb11-2023> <20:48:23>  gradient rms                        0.00034056
 <Feb11-2023> <20:48:23>  cart. step max                      0.00296508     0.01000000    T
 <Feb11-2023> <20:48:23>  cart. step rms                      0.00085521     0.00666667    T
  Coordinates in Geometry Cycle 64
    Atom         X           Y           Z   (Angstrom)
    1.Mo        0.343958   -3.050190   -1.858291
    2.O         0.036932    0.144007   -5.363259
    3.Mo       -0.505700    3.101042    1.722684
    4.Mo        3.071096   -0.698115    1.929376
    5.Mo       -0.053533   -0.093039   -3.624070
    6.Mo        2.515288    2.522230    0.000000
    7.Mo       -0.053533   -0.093039    3.624070
    8.O         3.816486    3.697576    0.000000
    9.O         0.036932    0.144007    5.363259
   10.Mo        0.343958   -3.050190    1.858291
   11.Mo        3.071096   -0.698115   -1.929376
   12.Mo       -0.505700    3.101042   -1.722684
   13.O         0.452541   -0.724570   -1.283054
   14.O        -1.700052   -0.045928    0.000000
   15.O         0.306402    1.484173    0.000000
   16.O         0.452541   -0.724570    1.283054
   17.O        -1.384520   -3.160610    1.602247
   18.O         0.093903    1.727825   -2.978100
   19.O        -1.771890   -0.265413    3.303897
   20.O         2.969727    1.378543   -1.349712
   21.O        -2.156485    2.070953   -1.575109
   22.O         3.322263   -0.799020    0.000000
   23.O        -2.156485    2.070953    1.575109
   24.O         0.867466   -3.245622    0.000000
   25.O         0.093903    1.727825    2.978100
   26.O        -1.384520   -3.160610   -1.602247
   27.O         2.969727    1.378543    1.349712
   28.O        -1.771890   -0.265413   -3.303897
   29.O         2.107510   -0.088407   -3.382070
   30.O        -1.008650    4.369702   -2.807352
   31.O         1.287107    3.530151   -1.340992
   32.O         0.292396   -2.039514    3.519226
   33.O         2.543088   -2.429324   -2.041231
   34.O        -0.974506    3.913773    0.000000
   35.O         2.543088   -2.429324    2.041231
   36.P        -0.161469   -0.038505    0.000000
   37.O         0.775690   -4.635401    2.490109
   38.O         2.107510   -0.088407    3.382070
   39.O         0.292396   -2.039514   -3.519226
   40.O         1.287107    3.530151    1.340992
   41.O         0.775690   -4.635401   -2.490109
   42.O         4.728092   -0.711290   -2.510143
   43.O        -1.008650    4.369702    2.807352
   44.O         4.728092   -0.711290    2.510143
   45.H        -2.061192    1.199773    1.069660
   46.H        -2.061192    1.199773   -1.069660
 <Feb11-2023> <20:48:24>  >>>> CORORT
 <Feb11-2023> <20:48:24>  >>>> CLSMAT
 <Feb11-2023> <20:48:24>  >>>> ORTHON
 <Feb11-2023> <20:48:24>  >>>> GENPT
 <Feb11-2023> <20:48:24>  Block Length= 128
 <Feb11-2023> <20:48:25>  >>>> PTBAS
 <Feb11-2023> <20:48:37>  combining surface points...
 <Feb11-2023> <20:48:37>  combining surface points...
 <Feb11-2023> <20:48:37>  combining surface points...
 <Feb11-2023> <20:48:37>  >>>> CYCLE
 <Feb11-2023> <20:48:48>              |Error|         MaxErr       Wt(A-DIIS)
 <Feb11-2023> <20:48:48>      1      0.18996153      0.01581772
 <Feb11-2023> <20:48:56>      2      0.81657330      0.07164316    100.0
 <Feb11-2023> <20:49:05>      3      0.21629527      0.01529388    100.0
 <Feb11-2023> <20:49:13>      4      0.19852618      0.01733161     16.5
 <Feb11-2023> <20:49:21>      5      0.46996048      0.04447809    100.0
 <Feb11-2023> <20:49:29>      6      0.12122161      0.01309233     12.2
 <Feb11-2023> <20:49:37>      7      0.11463852      0.01289517     12.0
 <Feb11-2023> <20:49:45>      8      0.04320201      0.00500219      4.0
 <Feb11-2023> <20:49:53>      9      0.02249171      0.00236466      1.4
 <Feb11-2023> <20:50:01>     10      0.00973156      0.00119390      0.2
 <Feb11-2023> <20:50:09>     11      0.00310883      0.00029065      0.0
 <Feb11-2023> <20:50:17>     12      0.00153379      0.00014453      0.0
 <Feb11-2023> <20:50:25>     13      0.00126032      0.00014067      0.0
 <Feb11-2023> <20:50:32>     14      0.00089678      0.00009037      0.0
 <Feb11-2023> <20:50:40>     15      0.00021876      0.00002322      0.0
 <Feb11-2023> <20:50:48>     16      0.00014553      0.00001326      0.0
 <Feb11-2023> <20:50:56>     17      0.00003635      0.00000316      0.0
 <Feb11-2023> <20:51:04>     18      0.00007627      0.00000789      0.0
 <Feb11-2023> <20:51:12>     19      0.00001442      0.00000126      0.0
 <Feb11-2023> <20:51:19>     20      0.00003522      0.00000364      0.0
 <Feb11-2023> <20:51:27>     21      0.00001799      0.00000182      0.0
 <Feb11-2023> <20:51:35>     22      0.00000838      0.00000120      0.0
 <Feb11-2023> <20:51:43>     23      0.00000084      0.00000007      0.0
 <Feb11-2023> <20:51:45>  SCF converged
 <Feb11-2023> <20:51:50>     24      0.00000075      0.00000009      0.0
 <Feb11-2023> <20:51:53>  >>>> TOTEN
 <Feb11-2023> <20:52:05>  >>>> POPAN
 <Feb11-2023> <20:52:05>  >>>> DEBYE
 <Feb11-2023> <20:52:05>  >>>> ENGRAD
 <Feb11-2023> <20:53:19>  current energy                              -14.27663160 Hartree
 <Feb11-2023> <20:53:19>  energy change                      -0.00019942     0.00100000    T
 <Feb11-2023> <20:53:19>  constrained gradient max            0.00075030     0.00100000    T
 <Feb11-2023> <20:53:19>  constrained gradient rms            0.00026355     0.00066667    T
 <Feb11-2023> <20:53:19>  gradient max                        0.00075030
 <Feb11-2023> <20:53:19>  gradient rms                        0.00026355
 <Feb11-2023> <20:53:19>  cart. step max                      0.00281055     0.01000000    T
 <Feb11-2023> <20:53:19>  cart. step rms                      0.00071351     0.00666667    T
 <Feb11-2023> <20:53:19>  GEOMETRY CONVERGED
 <Feb11-2023> <20:53:19>  Calculating Energy Terms for Final Geometry
  Coordinates in Geometry Cycle 64
    Atom         X           Y           Z   (Angstrom)
    1.Mo        0.343958   -3.050190   -1.858291
    2.O         0.036932    0.144007   -5.363259
    3.Mo       -0.505700    3.101042    1.722684
    4.Mo        3.071096   -0.698115    1.929376
    5.Mo       -0.053533   -0.093039   -3.624070
    6.Mo        2.515288    2.522230    0.000000
    7.Mo       -0.053533   -0.093039    3.624070
    8.O         3.816486    3.697576    0.000000
    9.O         0.036932    0.144007    5.363259
   10.Mo        0.343958   -3.050190    1.858291
   11.Mo        3.071096   -0.698115   -1.929376
   12.Mo       -0.505700    3.101042   -1.722684
   13.O         0.452541   -0.724570   -1.283054
   14.O        -1.700052   -0.045928    0.000000
   15.O         0.306402    1.484173    0.000000
   16.O         0.452541   -0.724570    1.283054
   17.O        -1.384520   -3.160610    1.602247
   18.O         0.093903    1.727825   -2.978100
   19.O        -1.771890   -0.265413    3.303897
   20.O         2.969727    1.378543   -1.349712
   21.O        -2.156485    2.070953   -1.575109
   22.O         3.322263   -0.799020    0.000000
   23.O        -2.156485    2.070953    1.575109
   24.O         0.867466   -3.245622    0.000000
   25.O         0.093903    1.727825    2.978100
   26.O        -1.384520   -3.160610   -1.602247
   27.O         2.969727    1.378543    1.349712
   28.O        -1.771890   -0.265413   -3.303897
   29.O         2.107510   -0.088407   -3.382070
   30.O        -1.008650    4.369702   -2.807352
   31.O         1.287107    3.530151   -1.340992
   32.O         0.292396   -2.039514    3.519226
   33.O         2.543088   -2.429324   -2.041231
   34.O        -0.974506    3.913773    0.000000
   35.O         2.543088   -2.429324    2.041231
   36.P        -0.161469   -0.038505    0.000000
   37.O         0.775690   -4.635401    2.490109
   38.O         2.107510   -0.088407    3.382070
   39.O         0.292396   -2.039514   -3.519226
   40.O         1.287107    3.530151    1.340992
   41.O         0.775690   -4.635401   -2.490109
   42.O         4.728092   -0.711290   -2.510143
   43.O        -1.008650    4.369702    2.807352
   44.O         4.728092   -0.711290    2.510143
   45.H        -2.061192    1.199773    1.069660
   46.H        -2.061192    1.199773   -1.069660
 <Feb11-2023> <20:53:19>  >>>> CORORT
 <Feb11-2023> <20:53:19>  >>>> CLSMAT
 <Feb11-2023> <20:53:19>  >>>> ORTHON
 <Feb11-2023> <20:53:19>  >>>> GENPT
 <Feb11-2023> <20:53:19>  Block Length= 128
 <Feb11-2023> <20:53:20>  >>>> PTBAS
 <Feb11-2023> <20:53:32>  combining surface points...
 <Feb11-2023> <20:53:32>  combining surface points...
 <Feb11-2023> <20:53:32>  combining surface points...
 <Feb11-2023> <20:53:32>  >>>> CYCLE
 <Feb11-2023> <20:53:43>              |Error|         MaxErr       Wt(A-DIIS)
 <Feb11-2023> <20:53:43>      1      0.19020633      0.01968019
 <Feb11-2023> <20:53:52>      2      0.81758771      0.08979086    100.0
 <Feb11-2023> <20:54:00>      3      0.21787145      0.01734559    100.0
 <Feb11-2023> <20:54:08>      4      0.19810687      0.02255790     21.8
 <Feb11-2023> <20:54:16>      5      0.51325358      0.06108723    100.0
 <Feb11-2023> <20:54:24>      6      0.11761925      0.01464739     13.8
 <Feb11-2023> <20:54:32>      7      0.12007820      0.01732386     13.8
 <Feb11-2023> <20:54:40>      8      0.04568255      0.00633203      5.4
 <Feb11-2023> <20:54:48>      9      0.02322801      0.00317024      2.2
 <Feb11-2023> <20:54:56>     10      0.01001128      0.00110009      0.1
 <Feb11-2023> <20:55:04>     11      0.00315238      0.00039106      0.0
 <Feb11-2023> <20:55:12>     12      0.00167503      0.00016340      0.0
 <Feb11-2023> <20:55:20>     13      0.00126198      0.00013798      0.0
 <Feb11-2023> <20:55:28>     14      0.00087046      0.00010992      0.0
 <Feb11-2023> <20:55:36>     15      0.00022273      0.00002242      0.0
 <Feb11-2023> <20:55:43>     16      0.00026292      0.00002725      0.0
 <Feb11-2023> <20:55:51>     17      0.00004392      0.00000413      0.0
 <Feb11-2023> <20:55:59>     18      0.00012716      0.00001678      0.0
 <Feb11-2023> <20:56:07>     19      0.00001630      0.00000180      0.0
 <Feb11-2023> <20:56:15>     20      0.00004311      0.00000562      0.0
 <Feb11-2023> <20:56:22>     21      0.00002088      0.00000202      0.0
 <Feb11-2023> <20:56:30>     22      0.00001052      0.00000138      0.0
 <Feb11-2023> <20:56:38>     23      0.00000213      0.00000021      0.0
 <Feb11-2023> <20:56:41>  SCF converged
 <Feb11-2023> <20:56:46>     24      0.00000111      0.00000010      0.0
 <Feb11-2023> <20:56:52>  >>>> TOTEN
 <Feb11-2023> <20:57:24>  QTAIM: determining topology...
 <Feb11-2023> <20:57:48>  >>>> POPAN
 <Feb11-2023> <20:57:48>  >>>> DEBYE
 <Feb11-2023> <20:57:48>  >>>> AMETS
 <Feb11-2023> <20:57:48>  >>>> POPUL
 <Feb11-2023> <20:57:48>   Bond Energy         -14.27663160 a.u.
 <Feb11-2023> <20:57:48>   Bond Energy        -388.48691215 eV
 <Feb11-2023> <20:57:48>   Bond Energy       -8958.72       kcal/mol
 <Feb11-2023> <20:57:48>  >>>> ENHESS
 <Feb11-2023> <20:58:29>  === NUCLEUS:     1
 <Feb11-2023> <21:08:34>  === NUCLEUS:     2
 <Feb11-2023> <21:17:41>  === NUCLEUS:     3
 <Feb11-2023> <21:26:38>  === NUCLEUS:     4
 <Feb11-2023> <21:35:44>  === NUCLEUS:     5
 <Feb11-2023> <21:45:19>  === NUCLEUS:    10
 <Feb11-2023> <21:53:32>  === NUCLEUS:    11
 <Feb11-2023> <22:02:04>  === NUCLEUS:    13
 <Feb11-2023> <22:10:49>  === NUCLEUS:    14
 <Feb11-2023> <22:19:09>  === NUCLEUS:    15
 <Feb11-2023> <22:27:41>  === NUCLEUS:    17
 <Feb11-2023> <22:36:04>  === NUCLEUS:    18
 <Feb11-2023> <22:44:38>  === NUCLEUS:    19
 <Feb11-2023> <22:53:03>  === NUCLEUS:    20
 <Feb11-2023> <23:01:37>  === NUCLEUS:    21
 <Feb11-2023> <23:10:21>  === NUCLEUS:    22
 <Feb11-2023> <23:19:03>  === NUCLEUS:    24
 <Feb11-2023> <23:27:24>  === NUCLEUS:    29
 <Feb11-2023> <23:35:59>  === NUCLEUS:    30
 <Feb11-2023> <23:44:43>  === NUCLEUS:    31
 <Feb11-2023> <23:53:28>  === NUCLEUS:    32
 <Feb12-2023> <00:02:12>  === NUCLEUS:    33
 <Feb12-2023> <00:10:46>  === NUCLEUS:    34
 <Feb12-2023> <00:19:28>  === NUCLEUS:    36
 <Feb12-2023> <00:27:51>  === NUCLEUS:    41
 <Feb12-2023> <00:36:04>  === NUCLEUS:    44
 <Feb12-2023> <00:45:16>  === NUCLEUS:    45
 <Feb12-2023> <00:53:50>  >>>> CALC_HESS_PMAT
 <Feb12-2023> <00:57:09>  >>>> CALC_HESS_WMAT
 <Feb12-2023> <00:57:31>  NORMAL TERMINATION
 <Feb12-2023> <00:57:31>  END
