
 *******************************************************************************
 *                                                                             *
 *  -------------------------------------                                      *
 *   Amsterdam Density Functional  (ADF)         2019                          *
 *  -------------------------------------                                      *
 *                                               r74351 2019-04-25             *
 *                                                                             *
 *                                                                             *
 *                            =====================                            *
 *                            |                   |                            *
 *                            |     D I R A C     |                            *
 *                            |                   |                            *
 *                            =====================                            *
 *                                                                             *
 *                                                                             *
 *   Online information and documentation:  https://www.scm.com/support/       *
 *   E-mail:  support@scm.com   info@scm.com                                   *
 *                                                                             *
 *   Scientific publications using ADF results must be properly referenced     *
 *   See the User Manuals (or the web site) for recommended citations          *
 *   The terms and conditions of the End User License Agreement apply to       *
 *   the use of ADF, https://www.scm.com/license-terms/                        *
 *                                                                             *
 **********************  x86_64_linux_intel / intelmpi  ************************
 
 Licensed to: Dr. Carles Bo / Institute of Chemical Research of Catalonia ( (ICIQ) / Tarragona / Spain 2022-11-28 14:37:29
 SCM User ID: u7609
  
 DIRAC 2019  RunTime: Feb10-2023 07:19:31  Nodes: 1  Procs: 1

 Temporary files are created in /scratch/kid_0.1575642120

1
 HYDROGEN ATOM RELATIVISTIC, Point Nuc, A and c from libtc   
 N J RN H ZN XION ANUC CLIGHT
 5000    1100.00000000197.36710137  1.00000000  0.00000000    1.007825  0.1370360E+03
  PH   PHI     EPS        DEL        DELRVR
  0.30  0.30     2500.00  0.00001000  0.00001000
 IDIRC  NC1  NDEBU NPRIN  IPUN IRCOR IWCOR
   1   300     0     0     0     0     0
   XALPHA      XLATTER      RNUC
  0.70000000  0.00000000  0.00000000 Point Charge
   XN   XL   XJ      XE          XZ      XDELL
  1.0  0.0  0.5      -1.000       1.000     0.00000
 ICORP=  0  NPCL=  0  DEMP=0.00  PEPS=0.000000
 R(1)=  0.1000000E-08 D=  0.1005080E+01 RNUC=  0.0000000E+00
 converged at cycle   32  DENSITY AVERAGING    0.2400
  MAXIMUM ERROR IN R.V(R) IS   0.79874357E-05
 Q,EY,EV,EZ,ESUM,ETOT,RHO  0.100000E+01 -0.266614E+00 -0.619969E+00 -0.910779E+00 -0.203940E+00 -0.415998E+00  0.337036E-17


 DIRAC CALCULATION
1                    HYDROGEN ATOM RELATIVISTIC, Point Nuc, A and c from libtc


 EXCHANGE COEFFICIENT=  0.7000000           TAIL CORRECTION=  0.           NUCLEAR RADIUS=  0.000E+00
0                       ORBITAL    N    L    J     ELECTRONS     EIGENVALUE                DELTA OF EIGENV.

                          1S1/2  1.0  0.0  0.5     1.000       -0.2039397E+00                 0.2720093E-06


                                        NUCLEAR CHARGE=    1.000000
                            INTEGRAL OF CHARGE DENSITY=    1.000000
                           SUM OF THE ORBITAL ENERGIES=     -0.2039
                                          TOTAL ENERGY=     -0.4160
                                        KINETIC ENERGY=      0.4160
                             NUCLEAR ATTRACTION ENERGY=     -0.9108
                             ELECTRON REPULSION ENERGY=      0.2787
                                       EXCHANGE ENERGY=     -0.2000

 *******************************************************************************

                             D I R A C   E X I T
 NORMAL TERMINATION



 =================
 Timing Statistics
 =================
  
 Total Used :                     CPU=        0.05      System=        0.01     Elapsed=        0.06

 Calls  Section                     ( Mean, Percentage )
 ---------------------------------------------------------------------------------------------------
     2  ><      ................      0.00    0.00             0.00    0.00             0.00    0.01
     1  EXIT PROCEDURE .........      0.05  100.00             0.01  100.00             0.06   99.99


 Currently Open Files (EXIT00)
 ====================

 Unit    Access Format  Status   Type       Ident (file)
 -------------------------------------------------------
   3      SEQ    FORM   TRANSP  NORMAL      LOGFILE
                                          ( logfile )
 
Create H   file=TZP-H
XC
  GGA PBE
End
relativistic ZORA
Corepotentials t12.rel
End

 *******************************************************************************
 *                                                                             *
 *  -------------------------------------                                      *
 *   Amsterdam Density Functional  (ADF)         2019                          *
 *  -------------------------------------                                      *
 *                                               r74351 2019-04-25             *
 *                                                                             *
 *                                                                             *
 *                              =================                              *
 *                              |               |                              *
 *                              |     A D F     |                              *
 *                              |               |                              *
 *                              =================                              *
 *                                                                             *
 *                                                                             *
 *   Online information and documentation:  https://www.scm.com/support/       *
 *   E-mail:  support@scm.com   info@scm.com                                   *
 *                                                                             *
 *   Scientific publications using ADF results must be properly referenced     *
 *   See the User Manuals (or the web site) for recommended citations          *
 *   The terms and conditions of the End User License Agreement apply to       *
 *   the use of ADF, https://www.scm.com/license-terms/                        *
 *                                                                             *
 **********************  x86_64_linux_intel / intelmpi  ************************
 
 Licensed to: Dr. Carles Bo / Institute of Chemical Research of Catalonia ( (ICIQ) / Tarragona / Spain 2022-11-28 14:37:29
 SCM User ID: u7609
  
 ADF 2019  RunTime: Feb10-2023 07:19:31  Nodes: 1  Procs: 1

 Temporary files are created in /scratch/kid_0.634677523

 Hydrogen (TZP)



 ===========================
 A T T A C H E D   F I L E S
 ===========================
  
 CREATE - Data File:    TZP-H
                        Hydrogen (TZP)
 Core Potentials:
         file : t12.rel



 ===============================
 M O D E L   P A R A M E T E R S
 ===============================
  
 DENSITY FUNCTIONAL POTENTIAL (scf)
    LDA:                               PW92                                    == Not Default ==
    Gradient Corrections:              PBEc PBEx                               == Not Default ==

 SPIN  (restricted / unrestr.)
    Molecule:                          Restricted                               

 OTHER ASPECTS
    Relativistic Corrections:          scalar (ZORA,MAPA)                      == Not Default ==

    Nuclear Charge Density Model:      Point Charge Nuclei                      
    Core Treatment:                    Frozen Orbital(s)                        

    Hyperfine or Zeeman Interaction:   ---                                      



 =====================================
 S Y M M E T R Y ,   E L E C T R O N S
 =====================================
  
 Symmetry: ATOM

 Irreducible Representations, including subspecies
 -------------------------------------------------
 S
 P:x  P:y  P:z
 D:z2  D:x2-y2  D:xy  D:xz  D:yz
 F:z3  F:z  F:xyz  F:z2x  F:z2y  F:x  F:y


 Configuration of Valence Electrons
 ==================================

          Occupation Numbers
          -------------------------------------------------
 S        1
 P        0
 D        0
 F        0
          -------------------------------------------------

 Total:   1

 Net Charge: 0 (Nuclei minus Electrons)

 Preset values for MO occupations will be applied through SCF cycle no. 1000000
 Thereafter, the program will assign electrons to MOs that are spatially
 similar to the occupied MOs in a "reference" cycle ("KeepOrbitals").
 The reference cycle is always the PREVIOUS cycle: it will evolve with
 the SCF procedure.



 ================================
 (Slater-type)  F U N C T I O N S  ***  (Basis and Fit)  ***
 ================================
  

 Atom Type    1  (H)
 ==============

 Valence Basis Sets:   4
 -----------------------
   1 S    0.690000
   1 S    0.920000
   1 S    1.580000
   2 P    1.250000


 BAS: List of all Elementary Cartesian Basis Functions
 =====================================================

 The numbering in the list below (to the right of the function characteristics) is referred
 to in print-outs of MO eigenvectors and Mulliken populations in the BAS representation
 (as contrasted to the SFO representation).

 Notes:
 1. The functions are characterized by a polynomial prefactor (powers of x,y,z and r) and
    an exponential decay factor alpha.
 2. Since the basis sets are specific for an atom TYPE, the individual functions occur on
    all atoms of that type.
 3. The word 'Core' in the left margin signals that it is a Core Function (CF) : not a
    degree of freedom in the valence set, but only used to ensure orthogonalization of
    the other valence basis functions on the frozen Core Orbitals.


 (power of) X  Y  Z  R     Alpha  on Atom
            ==========     =====     ==========

 H                                    1
                                  ---------------------------------------------------------------------------
            0  0  0  0     0.690      1
            0  0  0  0     0.920      2
            0  0  0  0     1.580      3
            1  0  0  0     1.250      4
            0  1  0  0     1.250      5
            0  0  1  0     1.250      6

 Total number of charge fitting functions (nprimf)        50
 Total number of Cartesian basis functions (naos)          6
 Total number of Cartesian core functions  (ncos)          0



 BAS: List of all Elementary Cartesian Basis Functions
 =====================================================

 The numbering in the list below (to the right of the function characteristics) is referred
 to in print-outs of MO eigenvectors and Mulliken populations in the BAS representation
 (as contrasted to the SFO representation).

 Notes:
 1. The functions are characterized by a polynomial prefactor (powers of x,y,z and r) and
    an exponential decay factor alpha.
 2. Since the basis sets are specific for an atom TYPE, the individual functions occur on
    all atoms of that type.
 3. The word 'Core' in the left margin signals that it is a Core Function (CF) : not a
    degree of freedom in the valence set, but only used to ensure orthogonalization of
    the other valence basis functions on the frozen Core Orbitals.


 (power of) X  Y  Z  R     Alpha  on Atom
            ==========     =====     ==========

 H                                    1
                                  ---------------------------------------------------------------------------
            0  0  0  0     0.690      1
            0  0  0  0     0.920      2
            0  0  0  0     1.580      3
            1  0  0  0     1.250      4
            0  1  0  0     1.250      5
            0  0  1  0     1.250      6
1
 ***************************************************************************************************



                                              ***********************
                                              *  T E C H N I C A L  *
                                              ***********************
  



 =============================================================
 P A R A L L E L I Z A T I O N  and  V E C T O R I Z A T I O N
 =============================================================
  
 Nr of parallel processes:                                1
 Maximum vector length in NumInt loops:                 128



 =====================
 S C F   U P D A T E S
 =====================
  
 Max. nr. of cycles:                               300
 Convergence criterion:                              0.0000000100
   secondary criterion:                              0.0000000100

 Mix parameter (when DIIS does not apply):           0.2000000000
 Special mix parameter for the first cycle:          1.0000000000
 Mixed ADIIS+SDIIS will be used                  
    Max number of expansion vectors:                10
    Pure ADIIS when Max([F,P]) is above              0.1000000000
    Pure SDIIS when Max([F,P]) is below              0.0010000000
 Automatic ElectronSmearing (in case of problematic SCF convergence) disabled



 =================
 P R E C I S I O N  ***  (General: NumInt, NeglectFunctionTails, ...)  ***
 =================
  

 NumInt:           Target precision:                12.0000000000
 -------           Initial precision:               10.0000000000
                   Min. precision (optimization):   10.0000000000

 Neglect Functions:          Basis functions:        0.1000000000E-13
 ------------------          Fit functions:          0.1000000000E-13



 ===========================
 L I N E A R   S C A L I N G
 ===========================
  

 Cut-off radii density fit:                        0.1000000000E-97
 Overlap cut-off criterion AO matrix elements:     0.1000000000E-97
 Cut-offs for Coulomb potential and fitted density:0.1000000000E-97
 Cut-off criterion for Coulomb multipole terms:    0.1000000000E-97
 Progressive Convergence parameter:                 0.000000000    
1
 ***************************************************************************************************



                                            ***************************
                                            *  C O M P U T A T I O N  *
                                            ***************************
  

 Number of elements of the density matrix on this node (used, total):        21        21



 ===========================================
 Numerical Integration : Fuzzy Cells (Becke)
 ===========================================
  
 Becke grid quality: VERYGOOD       
  
 Lebedev angular grid order:             min:  13 max:  41
 Nr. of radial points:                   min:  64 max:  64

 Total nr. of points:         64
 Nr. of blocks:                1
 Block length:                64
 Nr. of dummy points:          0


 Test of Precision of the Numerical Integration Grid
 ===================================================

 Integral of the Total Core Density:                   0.00000000000000



 ========================
 Density Fitting (zlmFit)
 ========================
  
 ZlmFit Fit Quality: VERYGOOD       
  
 Max L-expansion:                        min:   0 max:   0
 Nr. of radial interpolation points:     min: 120 max: 120



 =====
 S C F  ***  ScaSCF  ***
 =====
  

 CYCLE    1
 SCF Error: norm([F,P])=      0.000000000000, max([F,P])=      0.000000000000
 orbitals (Q,E):
 ---------------
 S :1...3            ( 1.00    -0.5000)  ( 0.00    -0.0900)  ( 0.00     1.2936)
 P :1...1            ( 0.00     0.1562)

 CYCLE    2
 SCF Error: norm([F,P])=      0.031537872292, max([F,P])=      0.030110494752
 orbitals (Q,E):
 ---------------
 S :1...2            ( 1.00    -0.2218)  ( 0.00     0.1019)
 P :1...1            ( 0.00     0.4189)

 CYCLE    3
  SDIIS (wt  0.000):  0.1996  0.8004
 A-DIIS (wt  1.000):  0.0000  1.0000
  DIIS coefficients:  0.0000  1.0000
 SCF Error: norm([F,P])=      0.008617989401, max([F,P])=      0.008343029399
 orbitals (Q,E):
 ---------------
 S :1...2            ( 1.00    -0.2422)  ( 0.00     0.0889)
 P :1...1            ( 0.00     0.4024)

 CYCLE    4
  SDIIS (wt  0.993):  0.1666  0.8334
 A-DIIS (wt  0.007):  0.0000  1.0000
  DIIS coefficients:  0.1654  0.8346
 SCF Error: norm([F,P])=      0.001732350026, max([F,P])=      0.001718616814
 orbitals (Q,E):
 ---------------
 S :1...2            ( 1.00    -0.2385)  ( 0.00     0.0908)
 P :1...1            ( 0.00     0.4054)

 CYCLE    5
  SDIIS (wt  1.000):  0.0236  0.9764
  DIIS coefficients:  0.0236  0.9764
 SCF Error: norm([F,P])=      0.000043673449, max([F,P])=      0.000039769875
 orbitals (Q,E):
 ---------------
 S :1...2            ( 1.00    -0.2386)  ( 0.00     0.0908)
 P :1...1            ( 0.00     0.4054)

 CYCLE    6
  SDIIS (wt  1.000): -0.0577  1.0577
  DIIS coefficients: -0.0577  1.0577
 SCF Error: norm([F,P])=      0.000002383805, max([F,P])=      0.000002158128
 orbitals (Q,E):
 ---------------
 S :1...2            ( 1.00    -0.2386)  ( 0.00     0.0908)
 P :1...1            ( 0.00     0.4054)

 CYCLE    7
  SDIIS (wt  1.000): -0.0032  1.0032
  DIIS coefficients: -0.0032  1.0032
 SCF Error: norm([F,P])=      0.000000007721, max([F,P])=      0.000000007228
 orbitals (Q,E):
 ---------------
 S :1...2            ( 1.00    -0.2386)  ( 0.00     0.0908)
 P :1...1            ( 0.00     0.4054)

 SCF CONVERGED

 CYCLE    8
1
 ***************************************************************************************************



                                                *******************
                                                *  R E S U L T S  *
                                                *******************
  
 *** Using FIT density in Focky
  SDIIS (wt  1.000):  0.0192  0.9808
  DIIS coefficients:  0.0192  0.9808
 SCF Error: norm([F,P])=      0.000000000151, max([F,P])=      0.000000000141

 Scaled ZORA Orbital Energies, per Irrep and Spin:
 =================================================
                        Occup              E (au)              E (eV)       Diff (eV) with prev. cycle
                        -----      --------------------        ------       --------------------------
 S
               1        1.000     -0.23861775226993E+00        -6.493               7.43E-09
               2        0.000      0.90791701709251E-01         2.471
               3        0.000      0.15217530108908E+01        41.409
 P
               1        0.000      0.40537978060393E+00        11.031


 Partially Occupied:
               1 S                -0.23861775226993E+00
  
 LUMO :        2 S                 0.90791701709251E-01
  


 Orbital Energies, all Irreps
 ========================================

 Irrep        no.  (spin)   Occup              E (au)                E (eV)
 ---------------------------------------------------------------------------
 S             1             1.00       -0.23861775226993E+00        -6.4931
 S             2             0.00        0.90791701709251E-01         2.4706
 P             1             0.00        0.40537978060393E+00        11.0309
 S             3             0.00        0.15217530108908E+01        41.4090


 All Electron Calculation, thus no Orbital Energies of the Core Orbitals are calculated



 =======================================
 M U L L I K E N   P O P U L A T I O N S
 =======================================
  
 The survey below gives for each atom:
 a) the total charge (Z minus electrons)
 b) the net spin polarization (nr of electrons spin-A minus spin-B)
 c) for each spin the atomic electron valence density (integrated) per L-value.

 Atom              Charge    Spin density          S         P         D         F
 ----              ------    ------------       ------    ------    ------    ------
 1 H              -0.0000                       1.0000    0.0000    0.0000    0.0000

 Populations of individual BAS functions
 ----------------------------------------
 1 H            0.2104  0.6788  0.1107  0.0000  0.0000  0.0000

 Gross Charges per Atom (Z minus electrons)
 ==========================================
            -0.0000
 Net Total: -0.00000000



 =======================================================================
 Electrostatic potential at the Nuclei due to electrons and other nuclei
 =======================================================================
  
         Atom                  Potential
         ----                  ---------
     1)   H                   0.94468022
 
 
 ========================
 No memory problems found
 ========================
 
 Maximum number of active allocate calls:         306
 
 *******************************************************************************

                             A D F   E X I T
 NORMAL TERMINATION



 =================
 Timing Statistics
 =================
  
 Total Used :                     CPU=        0.33      System=        0.01     Elapsed=        0.37

 Calls  Section                     ( Mean, Percentage )
 ---------------------------------------------------------------------------------------------------
     3  ><      ................      0.00    0.00             0.00    0.00             0.00    1.17
     1  INIT    ................      0.06   19.51             0.00   33.33             0.07   19.83
     1  GEOMET  ................      0.02    6.10             0.00    0.00             0.02    6.29
     1  INPUTA  ................      0.00    1.22             0.00    0.00             0.00    0.90
     1  MAINSY  ................      0.01    2.44             0.00   33.34             0.01    3.33
     1  SYMFIT  ................      0.00    0.00             0.00    0.00             0.00    0.42
     1  CORORT  ................      0.00    0.00             0.00    0.00             0.00    0.32
     1  SYMORB  ................      0.00    1.22             0.00    0.00             0.00    0.19
     1  CLSMAT  ................      0.00    0.00             0.00    0.00             0.00    1.33
     1  ORTHON  ................      0.00    1.22             0.00   33.33             0.00    1.28
     1  GENPT   ................      0.01    3.66             0.00    0.00             0.01    3.15
     1  PTBAS   ................      0.00    1.22             0.00    0.00             0.00    1.29
     8  FOCKY   ................      0.02   46.34             0.00    0.00             0.02   45.03
     8  FOCKTR  ................      0.00    3.66             0.00    0.00             0.00    1.12
     8  SDIIS   ................      0.00    4.88             0.00    0.00             0.00    5.55
     1  COREPS  ................      0.01    3.66             0.00    0.00             0.01    3.69
     1  POPAN   ................      0.00    1.22             0.00    0.00             0.00    1.18
     1  DEBYE   ................      0.00    1.22             0.00    0.00             0.00    0.50
     1  EXIT PROCEDURE .........      0.01    2.44             0.00    0.00             0.01    3.42


 Currently Open Files (EXIT00)
 ====================

 Unit    Access Format  Status   Type       Ident (file)
 -------------------------------------------------------
   3      SEQ    FORM   TRANSP  NORMAL      LOGFILE
                                          ( logfile )

 ***************************************************************************************************
 (LOGFILE)
 <Feb10-2023> <07:19:31>  DIRAC 2019  RunTime: Feb10-2023 07:19:31  Nodes: 1  Procs: 1
 <Feb10-2023> <07:19:31>  NORMAL TERMINATION
 <Feb10-2023> <07:19:31>  END
 <Feb10-2023> <07:19:31>  ADF 2019  RunTime: Feb10-2023 07:19:31  Nodes: 1  Procs: 1
 <Feb10-2023> <07:19:31>  Hydrogen (TZP)
 <Feb10-2023> <07:19:31>  RunType   : CREATE
 <Feb10-2023> <07:19:31>  Net Charge: 0 (Nuclei minus Electrons)
 <Feb10-2023> <07:19:31>  Symmetry  : ATOM
  Coordinates
    Atom         X           Y           Z   (Angstrom)
    1.H         0.000000    0.000000    0.000000
 <Feb10-2023> <07:19:31>  >>>> CORORT
 <Feb10-2023> <07:19:31>  >>>> CLSMAT
 <Feb10-2023> <07:19:31>  >>>> ORTHON
 <Feb10-2023> <07:19:31>  >>>> GENPT
 <Feb10-2023> <07:19:31>  Block Length=  64
 <Feb10-2023> <07:19:31>  >>>> PTBAS
 <Feb10-2023> <07:19:31>  >>>> CYCLE
 <Feb10-2023> <07:19:32>              |Error|         MaxErr       Wt(A-DIIS)
 <Feb10-2023> <07:19:32>      1      0.00000000      0.00000000
 <Feb10-2023> <07:19:32>      2      0.03153787      0.03011049
 <Feb10-2023> <07:19:32>      3      0.00861799      0.00834303    100.0
 <Feb10-2023> <07:19:32>      4      0.00173235      0.00171862      0.7
 <Feb10-2023> <07:19:32>      5      0.00004367      0.00003977      0.0
 <Feb10-2023> <07:19:32>      6      0.00000238      0.00000216      0.0
 <Feb10-2023> <07:19:32>      7      0.00000001      0.00000001      0.0
 <Feb10-2023> <07:19:32>  SCF converged
 <Feb10-2023> <07:19:32>      8      0.00000000      0.00000000      0.0
 <Feb10-2023> <07:19:32>  >>>> POPAN
 <Feb10-2023> <07:19:32>  >>>> DEBYE
 <Feb10-2023> <07:19:32>  NORMAL TERMINATION
 <Feb10-2023> <07:19:32>  END

 *******************************************************************************
 *                                                                             *
 *  -------------------------------------                                      *
 *   Amsterdam Density Functional  (ADF)         2019                          *
 *  -------------------------------------                                      *
 *                                               r74351 2019-04-25             *
 *                                                                             *
 *                                                                             *
 *                            =====================                            *
 *                            |                   |                            *
 *                            |     D I R A C     |                            *
 *                            |                   |                            *
 *                            =====================                            *
 *                                                                             *
 *                                                                             *
 *   Online information and documentation:  https://www.scm.com/support/       *
 *   E-mail:  support@scm.com   info@scm.com                                   *
 *                                                                             *
 *   Scientific publications using ADF results must be properly referenced     *
 *   See the User Manuals (or the web site) for recommended citations          *
 *   The terms and conditions of the End User License Agreement apply to       *
 *   the use of ADF, https://www.scm.com/license-terms/                        *
 *                                                                             *
 **********************  x86_64_linux_intel / intelmpi  ************************
 
 Licensed to: Dr. Carles Bo / Institute of Chemical Research of Catalonia ( (ICIQ) / Tarragona / Spain 2022-11-28 14:37:29
 SCM User ID: u7609
  
 DIRAC 2019  RunTime: Feb10-2023 07:19:32  Nodes: 1  Procs: 1

 Temporary files are created in /scratch/kid_0.475690719

1
 PHOSPHORUS ATOM 1s CORE RELATIVISTIC, Point Nuc, A and c fro
 N J RN H ZN XION ANUC CLIGHT
 5000    7100.00000000197.36710137 15.00000000  0.00000000   30.973761  0.1370360E+03
  PH   PHI     EPS        DEL        DELRVR
  0.30  0.30     2500.00  0.00001000  0.00001000
 IDIRC  NC1  NDEBU NPRIN  IPUN IRCOR IWCOR
   1   300     0     0     0     0     1
   XALPHA      XLATTER      RNUC
  0.70000000  0.00000000  0.00000000 Point Charge
   XN   XL   XJ      XE          XZ      XDELL
  1.0  0.0  0.5    -600.000       2.000     0.00000
  2.0  0.0  0.5     -75.000       2.000     0.00000
  2.0  1.0  0.5     -70.000       2.000     0.00000
  2.0  1.0  1.5     -70.000       4.000     0.00000
  3.0  0.0  0.5     -25.000       2.000     0.00000
  3.0  1.0  0.5      -0.250       2.000     0.00000
  3.0  1.0  1.5      -0.250       1.000     0.00000
 ICORP=  0  NPCL=  0  DEMP=0.00  PEPS=0.000000
 R(1)=  0.1000000E-08 D=  0.1005080E+01 RNUC=  0.0000000E+00
 converged at cycle   47  DENSITY AVERAGING    0.3000
  MAXIMUM ERROR IN R.V(R) IS   0.93255186E-05
 Q,EY,EV,EZ,ESUM,ETOT,RHO  0.150000E+02 -0.290161E+02 -0.536820E+03 -0.814855E+03 -0.194417E+03 -0.340688E+03  0.340722E-13


 DIRAC CALCULATION
1                    PHOSPHORUS ATOM 1s CORE RELATIVISTIC, Point Nuc, A and c from libtc


 EXCHANGE COEFFICIENT=  0.7000000           TAIL CORRECTION=  0.           NUCLEAR RADIUS=  0.000E+00
0                       ORBITAL    N    L    J     ELECTRONS     EIGENVALUE                DELTA OF EIGENV.

                          1S1/2  1.0  0.0  0.5     2.000       -0.7640874E+02                 0.2597240E-06
                          2S1/2  2.0  0.0  0.5     2.000       -0.6353640E+01                 0.3482713E-07
                          2P1/2  2.0  1.0  0.5     2.000       -0.4588256E+01                 0.3010938E-07
                          2P3/2  2.0  1.0  1.5     4.000       -0.4554413E+01                 0.2993762E-07
                          3S1/2  3.0  0.0  0.5     2.000       -0.4844206E+00                 0.1693624E-07
                          3P1/2  3.0  1.0  0.5     2.000       -0.1770291E+00                 0.1234259E-07
                          3P3/2  3.0  1.0  1.5     1.000       -0.1750217E+00                 0.1224459E-07


                                        NUCLEAR CHARGE=   15.000000
                            INTEGRAL OF CHARGE DENSITY=   15.000000
                           SUM OF THE ORBITAL ENERGIES=   -194.4169
                                          TOTAL ENERGY=   -340.6884
                                        KINETIC ENERGY=    342.4034
                             NUCLEAR ATTRACTION ENERGY=   -814.8554
                             ELECTRON REPULSION ENERGY=    153.5256
                                       EXCHANGE ENERGY=    -21.7621

 *******************************************************************************

                             D I R A C   E X I T
 NORMAL TERMINATION



 =================
 Timing Statistics
 =================
  
 Total Used :                     CPU=        0.22      System=        0.00     Elapsed=        0.23

 Calls  Section                     ( Mean, Percentage )
 ---------------------------------------------------------------------------------------------------
     2  ><      ................      0.00    0.00             0.00    0.00             0.00    0.00
     1  EXIT PROCEDURE .........      0.22  100.00             0.00  100.00             0.23  100.00


 Currently Open Files (EXIT00)
 ====================

 Unit    Access Format  Status   Type       Ident (file)
 -------------------------------------------------------
   3      SEQ    FORM   TRANSP  NORMAL      LOGFILE
                                          ( logfile )
 
Create P   file=TZP-P.1s
XC
  GGA PBE
End
relativistic ZORA
Corepotentials t12.rel
End

 *******************************************************************************
 *                                                                             *
 *  -------------------------------------                                      *
 *   Amsterdam Density Functional  (ADF)         2019                          *
 *  -------------------------------------                                      *
 *                                               r74351 2019-04-25             *
 *                                                                             *
 *                                                                             *
 *                              =================                              *
 *                              |               |                              *
 *                              |     A D F     |                              *
 *                              |               |                              *
 *                              =================                              *
 *                                                                             *
 *                                                                             *
 *   Online information and documentation:  https://www.scm.com/support/       *
 *   E-mail:  support@scm.com   info@scm.com                                   *
 *                                                                             *
 *   Scientific publications using ADF results must be properly referenced     *
 *   See the User Manuals (or the web site) for recommended citations          *
 *   The terms and conditions of the End User License Agreement apply to       *
 *   the use of ADF, https://www.scm.com/license-terms/                        *
 *                                                                             *
 **********************  x86_64_linux_intel / intelmpi  ************************
 
 Licensed to: Dr. Carles Bo / Institute of Chemical Research of Catalonia ( (ICIQ) / Tarragona / Spain 2022-11-28 14:37:29
 SCM User ID: u7609
  
 ADF 2019  RunTime: Feb10-2023 07:19:32  Nodes: 1  Procs: 1

 Temporary files are created in /scratch/kid_0.154783468

 Phosphorus (TZP, 1s frozen)



 ===========================
 A T T A C H E D   F I L E S
 ===========================
  
 CREATE - Data File:    TZP-P.1s
                        Phosphorus (TZP, 1s frozen)
 Core Potentials:
         file : t12.rel



 ===============================
 M O D E L   P A R A M E T E R S
 ===============================
  
 DENSITY FUNCTIONAL POTENTIAL (scf)
    LDA:                               PW92                                    == Not Default ==
    Gradient Corrections:              PBEc PBEx                               == Not Default ==

 SPIN  (restricted / unrestr.)
    Molecule:                          Restricted                               

 OTHER ASPECTS
    Relativistic Corrections:          scalar (ZORA,MAPA)                      == Not Default ==

    Nuclear Charge Density Model:      Point Charge Nuclei                      
    Core Treatment:                    Frozen Orbital(s)                        

    Hyperfine or Zeeman Interaction:   ---                                      



 =====================================
 S Y M M E T R Y ,   E L E C T R O N S
 =====================================
  
 Symmetry: ATOM

 Irreducible Representations, including subspecies
 -------------------------------------------------
 S
 P:x  P:y  P:z
 D:z2  D:x2-y2  D:xy  D:xz  D:yz
 F:z3  F:z  F:xyz  F:z2x  F:z2y  F:x  F:y


 Configuration of Valence Electrons
 ==================================

          Occupation Numbers
          -------------------------------------------------
 S        2*2
 P        6 3
 D        0
 F        0
          -------------------------------------------------

 Total:   13

 Net Charge: 0 (Nuclei minus Electrons)

 Preset values for MO occupations will be applied through SCF cycle no. 1000000
 Thereafter, the program will assign electrons to MOs that are spatially
 similar to the occupied MOs in a "reference" cycle ("KeepOrbitals").
 The reference cycle is always the PREVIOUS cycle: it will evolve with
 the SCF procedure.



 ================================
 (Slater-type)  F U N C T I O N S  ***  (Basis and Fit)  ***
 ================================
  

 Atom Type    1  (P)
 ==============

 Valence Basis Sets:  12
 -----------------------
   1 S   12.550000
   2 S    5.600000
   2 S    4.050000
   2 P    7.450000
   2 P    4.100000
   3 S    1.300000
   3 S    1.850000
   3 S    2.650000
   3 P    0.850000
   3 P    1.300000
   3 P    2.050000
   3 D    1.900000

 Frozen Core Shells
 ------------------
    S:  1


 BAS: List of all Elementary Cartesian Basis Functions
 =====================================================

 The numbering in the list below (to the right of the function characteristics) is referred
 to in print-outs of MO eigenvectors and Mulliken populations in the BAS representation
 (as contrasted to the SFO representation).

 Notes:
 1. The functions are characterized by a polynomial prefactor (powers of x,y,z and r) and
    an exponential decay factor alpha.
 2. Since the basis sets are specific for an atom TYPE, the individual functions occur on
    all atoms of that type.
 3. The word 'Core' in the left margin signals that it is a Core Function (CF) : not a
    degree of freedom in the valence set, but only used to ensure orthogonalization of
    the other valence basis functions on the frozen Core Orbitals.


 (power of) X  Y  Z  R     Alpha  on Atom
            ==========     =====     ==========

 P                                    1
                                  ---------------------------------------------------------------------------
    Core    0  0  0  0    12.550      1
            0  0  0  1     5.600      2
            0  0  0  1     4.050      3
            1  0  0  0     7.450      4
            0  1  0  0     7.450      5
            0  0  1  0     7.450      6
            1  0  0  0     4.100      7
            0  1  0  0     4.100      8
            0  0  1  0     4.100      9
            0  0  0  2     1.300     10
            0  0  0  2     1.850     11
            0  0  0  2     2.650     12
            1  0  0  1     0.850     13
            0  1  0  1     0.850     14
            0  0  1  1     0.850     15
            1  0  0  1     1.300     16
            0  1  0  1     1.300     17
            0  0  1  1     1.300     18
            1  0  0  1     2.050     19
            0  1  0  1     2.050     20
            0  0  1  1     2.050     21
            2  0  0  0     1.900     22
            1  1  0  0     1.900     23
            1  0  1  0     1.900     24
            0  2  0  0     1.900     25
            0  1  1  0     1.900     26
            0  0  2  0     1.900     27

 Total number of charge fitting functions (nprimf)       106
 Total number of Cartesian basis functions (naos)         27
 Total number of Cartesian core functions  (ncos)          1



 BAS: List of all Elementary Cartesian Basis Functions
 =====================================================

 The numbering in the list below (to the right of the function characteristics) is referred
 to in print-outs of MO eigenvectors and Mulliken populations in the BAS representation
 (as contrasted to the SFO representation).

 Notes:
 1. The functions are characterized by a polynomial prefactor (powers of x,y,z and r) and
    an exponential decay factor alpha.
 2. Since the basis sets are specific for an atom TYPE, the individual functions occur on
    all atoms of that type.
 3. The word 'Core' in the left margin signals that it is a Core Function (CF) : not a
    degree of freedom in the valence set, but only used to ensure orthogonalization of
    the other valence basis functions on the frozen Core Orbitals.


 (power of) X  Y  Z  R     Alpha  on Atom
            ==========     =====     ==========

 P                                    1
                                  ---------------------------------------------------------------------------
    Core    0  0  0  0    12.550      1
            0  0  0  1     5.600      2
            0  0  0  1     4.050      3
            1  0  0  0     7.450      4
            0  1  0  0     7.450      5
            0  0  1  0     7.450      6
            1  0  0  0     4.100      7
            0  1  0  0     4.100      8
            0  0  1  0     4.100      9
            0  0  0  2     1.300     10
            0  0  0  2     1.850     11
            0  0  0  2     2.650     12
            1  0  0  1     0.850     13
            0  1  0  1     0.850     14
            0  0  1  1     0.850     15
            1  0  0  1     1.300     16
            0  1  0  1     1.300     17
            0  0  1  1     1.300     18
            1  0  0  1     2.050     19
            0  1  0  1     2.050     20
            0  0  1  1     2.050     21
            2  0  0  0     1.900     22
            1  1  0  0     1.900     23
            1  0  1  0     1.900     24
            0  2  0  0     1.900     25
            0  1  1  0     1.900     26
            0  0  2  0     1.900     27
1
 ***************************************************************************************************



                                              ***********************
                                              *  T E C H N I C A L  *
                                              ***********************
  



 =============================================================
 P A R A L L E L I Z A T I O N  and  V E C T O R I Z A T I O N
 =============================================================
  
 Nr of parallel processes:                                1
 Maximum vector length in NumInt loops:                 128



 =====================
 S C F   U P D A T E S
 =====================
  
 Max. nr. of cycles:                               300
 Convergence criterion:                              0.0000000100
   secondary criterion:                              0.0000000100

 Mix parameter (when DIIS does not apply):           0.2000000000
 Special mix parameter for the first cycle:          1.0000000000
 Mixed ADIIS+SDIIS will be used                  
    Max number of expansion vectors:                10
    Pure ADIIS when Max([F,P]) is above              0.1000000000
    Pure SDIIS when Max([F,P]) is below              0.0010000000
 Automatic ElectronSmearing (in case of problematic SCF convergence) disabled



 =================
 P R E C I S I O N  ***  (General: NumInt, NeglectFunctionTails, ...)  ***
 =================
  

 NumInt:           Target precision:                12.0000000000
 -------           Initial precision:               10.0000000000
                   Min. precision (optimization):   10.0000000000

 Neglect Functions:          Basis functions:        0.1000000000E-13
 ------------------          Fit functions:          0.1000000000E-13



 ===========================
 L I N E A R   S C A L I N G
 ===========================
  

 Cut-off radii density fit:                        0.1000000000E-97
 Overlap cut-off criterion AO matrix elements:     0.1000000000E-97
 Cut-offs for Coulomb potential and fitted density:0.1000000000E-97
 Cut-off criterion for Coulomb multipole terms:    0.1000000000E-97
 Progressive Convergence parameter:                 0.000000000    
1
 ***************************************************************************************************



                                            ***************************
                                            *  C O M P U T A T I O N  *
                                            ***************************
  

 Number of elements of the density matrix on this node (used, total):       378       378



 ===========================================
 Numerical Integration : Fuzzy Cells (Becke)
 ===========================================
  
 Becke grid quality: VERYGOOD       
  
 Lebedev angular grid order:             min:  13 max:  41
 Nr. of radial points:                   min:  76 max:  76

 Total nr. of points:         76
 Nr. of blocks:                1
 Block length:                76
 Nr. of dummy points:          0


 Test of Precision of the Numerical Integration Grid
 ===================================================

 Integral of the Total Core Density:                   1.99999999908170
 Relative Error:                                      -4.592E-10



 ========================
 Density Fitting (zlmFit)
 ========================
  
 ZlmFit Fit Quality: VERYGOOD       
  
 Max L-expansion:                        min:   0 max:   0
 Nr. of radial interpolation points:     min: 190 max: 190



 =====
 S C F  ***  ScaSCF  ***
 =====
  

 CYCLE    1
 SCF Error: norm([F,P])=      0.000000000000, max([F,P])=      0.000000000000
 orbitals (Q,E):
 ---------------
 S :1...5            ( 2.00   -23.0992)  ( 2.00    -9.8031)  ( 0.00    -5.2886)  ( 0.00    -3.1440)
                     ( 0.00    -1.2993)
 P :1...5            ( 6.00   -22.3278)  ( 3.00    -9.2322)  ( 0.00    -4.8937)  ( 0.00    -3.0142)
                     ( 0.00    -1.9614)
 D :1...1            ( 0.00    -6.4318)

 CYCLE    2
  SDIIS (wt  0.000):  1.0000  0.0000
 A-DIIS (wt  1.000):  0.1145  0.8855
  DIIS coefficients:  0.1145  0.8855
 SCF Error: norm([F,P])=     18.574199763001, max([F,P])=      5.729460424591
 orbitals (Q,E):
 ---------------
 S :1...3            ( 2.00    -4.5689)  ( 2.00    -0.5693)  ( 0.00    -0.0589)
 P :1...3            ( 6.00    -2.5820)  ( 3.00    -0.3376)  ( 0.00    -0.0879)
 D :1...1            ( 0.00     0.3219)

 CYCLE    3
  SDIIS (wt  0.000):  0.2387  0.7613
 A-DIIS (wt  1.000):  0.0000  1.0000
  DIIS coefficients:  0.0000  1.0000
 SCF Error: norm([F,P])=      7.892246338364, max([F,P])=      2.592954182835
 orbitals (Q,E):
 ---------------
 S :1...3            ( 2.00    -8.2146)  ( 2.00    -0.9843)  ( 0.00    -0.0433)
 P :1...3            ( 6.00    -6.5635)  ( 3.00    -0.6019)  ( 0.00    -0.0049)
 D :1...1            ( 0.00    -0.0107)

 CYCLE    4
  SDIIS (wt  0.000): -0.0871  0.2952  0.7919
 A-DIIS (wt  1.000):  0.0000  0.1757  0.8243
  DIIS coefficients:  0.0000  0.1757  0.8243
 SCF Error: norm([F,P])=      4.387176641077, max([F,P])=      1.761626650861
 orbitals (Q,E):
 ---------------
 S :1...3            ( 2.00    -5.8126)  ( 2.00    -0.3504)  ( 0.00     0.1791)
 P :1...3            ( 6.00    -3.9508)  ( 3.00    -0.0835)  ( 0.00     0.1310)
 D :1...1            ( 0.00     0.5508)

 CYCLE    5
  SDIIS (wt  0.000): -0.0109 -0.0602  0.1941  0.8770
 A-DIIS (wt  1.000):  0.0000  0.0000  0.0000  1.0000
  DIIS coefficients:  0.0000  0.0000  0.0000  1.0000
 SCF Error: norm([F,P])=      1.324345584458, max([F,P])=      0.466956153840
 orbitals (Q,E):
 ---------------
 S :1...3            ( 2.00    -6.8907)  ( 2.00    -0.7073)  ( 0.00     0.0342)
 P :1...3            ( 6.00    -5.0922)  ( 3.00    -0.3650)  ( 0.00     0.0330)
 D :1...1            ( 0.00     0.1959)

 CYCLE    6
  SDIIS (wt  0.000):  0.0000 -0.0289 -0.0346  0.4584  0.6050
 A-DIIS (wt  1.000):  0.0000  0.0000  0.0000  0.3111  0.6889
  DIIS coefficients:  0.0000  0.0000  0.0000  0.3111  0.6889
 SCF Error: norm([F,P])=      0.894656609953, max([F,P])=      0.328552344502
 orbitals (Q,E):
 ---------------
 S :1...3            ( 2.00    -6.3109)  ( 2.00    -0.4896)  ( 0.00     0.1210)
 P :1...3            ( 6.00    -4.4823)  ( 3.00    -0.1842)  ( 0.00     0.0870)
 D :1...1            ( 0.00     0.4072)

 CYCLE    7
  SDIIS (wt  0.437):  0.0003 -0.0004 -0.0106 -0.0415  0.1385  0.9137
 A-DIIS (wt  0.563):  0.0000  0.0000  0.0000  0.0000  0.0000  1.0000
  DIIS coefficients:  0.0001 -0.0002 -0.0046 -0.0181  0.0605  0.9623
 SCF Error: norm([F,P])=      0.152753231532, max([F,P])=      0.056768903175
 orbitals (Q,E):
 ---------------
 S :1...3            ( 2.00    -6.4268)  ( 2.00    -0.5264)  ( 0.00     0.1084)
 P :1...3            ( 6.00    -4.6039)  ( 3.00    -0.2126)  ( 0.00     0.0772)
 D :1...1            ( 0.00     0.3702)

 CYCLE    8
  SDIIS (wt  0.777): -0.0000 -0.0007  0.0025  0.0136 -0.0400  0.1180  0.9067
 A-DIIS (wt  0.223):  0.0000  0.0000  0.0000  0.0000  0.0000  0.0410  0.9590
  DIIS coefficients: -0.0000 -0.0005  0.0019  0.0105 -0.0311  0.1008  0.9184
 SCF Error: norm([F,P])=      0.062117061218, max([F,P])=      0.023065151090
 orbitals (Q,E):
 ---------------
 S :1...3            ( 2.00    -6.3871)  ( 2.00    -0.5116)  ( 0.00     0.1144)
 P :1...3            ( 6.00    -4.5623)  ( 3.00    -0.2008)  ( 0.00     0.0809)
 D :1...1            ( 0.00     0.3849)

 CYCLE    9
  SDIIS (wt  0.976):  0.0000  0.0000 -0.0001 -0.0000 -0.0006  0.0067  0.1535  0.8406
 A-DIIS (wt  0.024):  0.0000  0.0000  0.0000  0.0000  0.0000  0.0000  0.0000  1.0000
  DIIS coefficients:  0.0000  0.0000 -0.0001 -0.0000 -0.0006  0.0065  0.1498  0.8445
 SCF Error: norm([F,P])=      0.008957667695, max([F,P])=      0.003406470825
 orbitals (Q,E):
 ---------------
 S :1...3            ( 2.00    -6.3923)  ( 2.00    -0.5136)  ( 0.00     0.1136)
 P :1...3            ( 6.00    -4.5677)  ( 3.00    -0.2024)  ( 0.00     0.0804)
 D :1...1            ( 0.00     0.3830)

 CYCLE   10
  SDIIS (wt  1.000): -0.0000  0.0000 -0.0000 -0.0000  0.0000  0.0002  0.0031  0.0372  0.9595
  DIIS coefficients: -0.0000  0.0000 -0.0000 -0.0000  0.0000  0.0002  0.0031  0.0372  0.9595
 SCF Error: norm([F,P])=      0.000163653333, max([F,P])=      0.000063717608
 orbitals (Q,E):
 ---------------
 S :1...3            ( 2.00    -6.3922)  ( 2.00    -0.5136)  ( 0.00     0.1136)
 P :1...3            ( 6.00    -4.5676)  ( 3.00    -0.2024)  ( 0.00     0.0804)
 D :1...1            ( 0.00     0.3830)

 CYCLE   11
  SDIIS (wt  1.000):  0.0000  0.0000 -0.0000 -0.0002 -0.0016 -0.0226  1.0244
  DIIS coefficients:  0.0000  0.0000 -0.0000 -0.0002 -0.0016 -0.0226  1.0244
 SCF Error: norm([F,P])=      0.000000175567, max([F,P])=      0.000000090743
 orbitals (Q,E):
 ---------------
 S :1...3            ( 2.00    -6.3922)  ( 2.00    -0.5136)  ( 0.00     0.1136)
 P :1...3            ( 6.00    -4.5676)  ( 3.00    -0.2024)  ( 0.00     0.0804)
 D :1...1            ( 0.00     0.3830)

 CYCLE   12
  SDIIS (wt  1.000): -0.0000 -0.0000 -0.0005 -0.0247  1.0252
  DIIS coefficients: -0.0000 -0.0000 -0.0005 -0.0247  1.0252
 SCF Error: norm([F,P])=      0.000000002285, max([F,P])=      0.000000001028
 orbitals (Q,E):
 ---------------
 S :1...3            ( 2.00    -6.3922)  ( 2.00    -0.5136)  ( 0.00     0.1136)
 P :1...3            ( 6.00    -4.5676)  ( 3.00    -0.2024)  ( 0.00     0.0804)
 D :1...1            ( 0.00     0.3830)

 SCF CONVERGED

 CYCLE   13
1
 ***************************************************************************************************



                                                *******************
                                                *  R E S U L T S  *
                                                *******************
  
 *** Using FIT density in Focky
  SDIIS (wt  1.000):  0.0000  0.0017  0.0326  0.9657
  DIIS coefficients:  0.0000  0.0017  0.0326  0.9657
 SCF Error: norm([F,P])=      0.000000000342, max([F,P])=      0.000000000172

 Scaled ZORA Orbital Energies, per Irrep and Spin:
 =================================================
                        Occup              E (au)              E (eV)       Diff (eV) with prev. cycle
                        -----      --------------------        ------       --------------------------
 S
               1        2.000     -0.63922369009056E+01      -173.942               8.75E-09
               2        2.000     -0.51357095789531E+00       -13.975               6.90E-09
               3        0.000      0.11360419341918E+00         3.091
               4        0.000      0.13218598554508E+01        35.970
               5        0.000      0.10430275582036E+02       283.822
 P
               1        6.000     -0.45676340295409E+01      -124.292               8.74E-09
               2        3.000     -0.20235270966723E+00        -5.506               5.88E-09
               3        0.000      0.80400995303665E-01         2.188
               4        0.000      0.71612464912880E+00        19.487
               5        0.000      0.95392466931961E+01       259.576
 D
               1        0.000      0.38299165710671E+00        10.422


 Partially Occupied:
               2 P                -0.20235270966723E+00
  
 HOMO :        2 S                -0.51357095789531E+00
 LUMO :        3 P                 0.80400995303665E-01
  


 Orbital Energies, all Irreps
 ========================================

 Irrep        no.  (spin)   Occup              E (au)                E (eV)
 ---------------------------------------------------------------------------
 S             1             2.00       -0.63922369009056E+01      -173.9416
 P             1             6.00       -0.45676340295409E+01      -124.2916
 S             2             2.00       -0.51357095789531E+00       -13.9750
 P             2             3.00       -0.20235270966723E+00        -5.5063
 P             3             0.00        0.80400995303665E-01         2.1878
 S             3             0.00        0.11360419341918E+00         3.0913
 D             1             0.00        0.38299165710671E+00        10.4217
 P             4             0.00        0.71612464912880E+00        19.4867
 S             4             0.00        0.13218598554508E+01        35.9696
 P             5             0.00        0.95392466931961E+01       259.5761
 S             5             0.00        0.10430275582036E+02       283.8222


 Scaled ZORA Orbital Energies of the Core Orbitals:
 ==================================================

 (Note that the atoms are grouped by atomtype, see the labels, and may hence NOT be in input order)

 AtomType  Orbital  Atom                   E (au)                        E (eV)
 --------  -------  ----           --------------------        ----------------
 P           1S        1          -0.76588588395026E+02               -2084.082



 =======================================
 M U L L I K E N   P O P U L A T I O N S
 =======================================
  
 The survey below gives for each atom:
 a) the total charge (Z minus electrons)
 b) the net spin polarization (nr of electrons spin-A minus spin-B)
 c) for each spin the atomic electron valence density (integrated) per L-value.

 Atom              Charge    Spin density          S         P         D         F
 ----              ------    ------------       ------    ------    ------    ------
 1 P              -0.0000                       4.0000    9.0000    0.0000    0.0000

 Populations of individual BAS functions
 ----------------------------------------
 1 P           -0.0481  1.4990  0.5077  0.7973  0.7973  0.7973  1.2052  1.2052  1.2052  0.3372
                1.0986  0.6057  0.1369  0.1369  0.1369  0.4144  0.4144  0.4144  0.4462  0.4462
                0.4462  0.0000  0.0000  0.0000  0.0000  0.0000  0.0000

 Gross Charges per Atom (Z minus electrons)
 ==========================================
            -0.0000
 Net Total: -0.00000000



 =======================================================================
 Electrostatic potential at the Nuclei due to electrons and other nuclei
 =======================================================================
  
         Atom                  Potential
         ----                  ---------
     1)   P                  54.30955117
 
 
 ========================
 No memory problems found
 ========================
 
 Maximum number of active allocate calls:         389
 
 *******************************************************************************

                             A D F   E X I T
 NORMAL TERMINATION



 =================
 Timing Statistics
 =================
  
 Total Used :                     CPU=        0.54      System=        0.02     Elapsed=        0.60

 Calls  Section                     ( Mean, Percentage )
 ---------------------------------------------------------------------------------------------------
     3  ><      ................      0.00    0.74             0.00    0.00             0.00    0.66
     1  INIT    ................      0.07   13.24             0.00    0.00             0.07   12.14
     1  GEOMET  ................      0.02    2.94             0.00    0.00             0.02    4.01
     1  INPUTA  ................      0.00    0.00             0.00    0.00             0.00    0.56
     1  MAINSY  ................      0.01    2.21             0.00    0.00             0.01    2.31
     1  SYMFIT  ................      0.00    0.00             0.00    0.00             0.00    0.27
     1  CORORT  ................      0.00    0.00             0.00    0.00             0.00    0.25
     1  SYMORB  ................      0.00    0.74             0.00    0.00             0.00    0.15
     1  CLSMAT  ................      0.00    0.74             0.00    0.00             0.01    0.89
     1  ORTHON  ................      0.00    0.74             0.00    0.00             0.01    0.93
     1  GENPT   ................      0.02    2.94             0.00    0.00             0.02    2.79
     1  PTBAS   ................      0.00    0.74             0.00    0.00             0.01    0.87
    13  FOCKY   ................      0.03   61.76             0.00   60.00             0.03   59.67
    13  FOCKTR  ................      0.00    2.21             0.00    0.00             0.00    1.34
    13  SDIIS   ................      0.00    5.15             0.00    0.00             0.00    6.00
     1  COREPS  ................      0.02    2.94             0.01   40.00             0.02    3.71
     1  POPAN   ................      0.00    0.74             0.00    0.00             0.00    0.83
     1  DEBYE   ................      0.00    0.00             0.00    0.00             0.00    0.31
     1  EXIT PROCEDURE .........      0.01    2.21             0.00    0.00             0.01    2.31


 Currently Open Files (EXIT00)
 ====================

 Unit    Access Format  Status   Type       Ident (file)
 -------------------------------------------------------
   3      SEQ    FORM   TRANSP  NORMAL      LOGFILE
                                          ( logfile )

 ***************************************************************************************************
 (LOGFILE)
 <Feb10-2023> <07:19:31>  DIRAC 2019  RunTime: Feb10-2023 07:19:31  Nodes: 1  Procs: 1
 <Feb10-2023> <07:19:31>  NORMAL TERMINATION
 <Feb10-2023> <07:19:31>  END
 <Feb10-2023> <07:19:31>  ADF 2019  RunTime: Feb10-2023 07:19:31  Nodes: 1  Procs: 1
 <Feb10-2023> <07:19:31>  Hydrogen (TZP)
 <Feb10-2023> <07:19:31>  RunType   : CREATE
 <Feb10-2023> <07:19:31>  Net Charge: 0 (Nuclei minus Electrons)
 <Feb10-2023> <07:19:31>  Symmetry  : ATOM
  Coordinates
    Atom         X           Y           Z   (Angstrom)
    1.H         0.000000    0.000000    0.000000
 <Feb10-2023> <07:19:31>  >>>> CORORT
 <Feb10-2023> <07:19:31>  >>>> CLSMAT
 <Feb10-2023> <07:19:31>  >>>> ORTHON
 <Feb10-2023> <07:19:31>  >>>> GENPT
 <Feb10-2023> <07:19:31>  Block Length=  64
 <Feb10-2023> <07:19:31>  >>>> PTBAS
 <Feb10-2023> <07:19:31>  >>>> CYCLE
 <Feb10-2023> <07:19:32>              |Error|         MaxErr       Wt(A-DIIS)
 <Feb10-2023> <07:19:32>      1      0.00000000      0.00000000
 <Feb10-2023> <07:19:32>      2      0.03153787      0.03011049
 <Feb10-2023> <07:19:32>      3      0.00861799      0.00834303    100.0
 <Feb10-2023> <07:19:32>      4      0.00173235      0.00171862      0.7
 <Feb10-2023> <07:19:32>      5      0.00004367      0.00003977      0.0
 <Feb10-2023> <07:19:32>      6      0.00000238      0.00000216      0.0
 <Feb10-2023> <07:19:32>      7      0.00000001      0.00000001      0.0
 <Feb10-2023> <07:19:32>  SCF converged
 <Feb10-2023> <07:19:32>      8      0.00000000      0.00000000      0.0
 <Feb10-2023> <07:19:32>  >>>> POPAN
 <Feb10-2023> <07:19:32>  >>>> DEBYE
 <Feb10-2023> <07:19:32>  NORMAL TERMINATION
 <Feb10-2023> <07:19:32>  END
 <Feb10-2023> <07:19:32>  DIRAC 2019  RunTime: Feb10-2023 07:19:32  Nodes: 1  Procs: 1
 <Feb10-2023> <07:19:32>  NORMAL TERMINATION
 <Feb10-2023> <07:19:32>  END
 <Feb10-2023> <07:19:32>  ADF 2019  RunTime: Feb10-2023 07:19:32  Nodes: 1  Procs: 1
 <Feb10-2023> <07:19:32>  Phosphorus (TZP, 1s frozen)
 <Feb10-2023> <07:19:32>  RunType   : CREATE
 <Feb10-2023> <07:19:32>  Net Charge: 0 (Nuclei minus Electrons)
 <Feb10-2023> <07:19:32>  Symmetry  : ATOM
  Coordinates
    Atom         X           Y           Z   (Angstrom)
    1.P         0.000000    0.000000    0.000000
 <Feb10-2023> <07:19:32>  >>>> CORORT
 <Feb10-2023> <07:19:32>  >>>> CLSMAT
 <Feb10-2023> <07:19:32>  >>>> ORTHON
 <Feb10-2023> <07:19:32>  >>>> GENPT
 <Feb10-2023> <07:19:32>  Block Length=  76
 <Feb10-2023> <07:19:32>  >>>> PTBAS
 <Feb10-2023> <07:19:32>  >>>> CYCLE
 <Feb10-2023> <07:19:32>              |Error|         MaxErr       Wt(A-DIIS)
 <Feb10-2023> <07:19:32>      1      0.00000000      0.00000000
 <Feb10-2023> <07:19:32>      2     18.57419976      5.72946042    100.0
 <Feb10-2023> <07:19:32>      3      7.89224634      2.59295418    100.0
 <Feb10-2023> <07:19:32>      4      4.38717664      1.76162665    100.0
 <Feb10-2023> <07:19:32>      5      1.32434558      0.46695615    100.0
 <Feb10-2023> <07:19:32>      6      0.89465661      0.32855234    100.0
 <Feb10-2023> <07:19:33>      7      0.15275323      0.05676890     56.3
 <Feb10-2023> <07:19:33>      8      0.06211706      0.02306515     22.3
 <Feb10-2023> <07:19:33>      9      0.00895767      0.00340647      2.4
 <Feb10-2023> <07:19:33>     10      0.00016365      0.00006372      0.0
 <Feb10-2023> <07:19:33>     11      0.00000018      0.00000009      0.0
 <Feb10-2023> <07:19:33>     12      0.00000000      0.00000000      0.0
 <Feb10-2023> <07:19:33>  SCF converged
 <Feb10-2023> <07:19:33>     13      0.00000000      0.00000000      0.0
 <Feb10-2023> <07:19:33>  >>>> POPAN
 <Feb10-2023> <07:19:33>  >>>> DEBYE
 <Feb10-2023> <07:19:33>  NORMAL TERMINATION
 <Feb10-2023> <07:19:33>  END

 *******************************************************************************
 *                                                                             *
 *  -------------------------------------                                      *
 *   Amsterdam Density Functional  (ADF)         2019                          *
 *  -------------------------------------                                      *
 *                                               r74351 2019-04-25             *
 *                                                                             *
 *                                                                             *
 *                            =====================                            *
 *                            |                   |                            *
 *                            |     D I R A C     |                            *
 *                            |                   |                            *
 *                            =====================                            *
 *                                                                             *
 *                                                                             *
 *   Online information and documentation:  https://www.scm.com/support/       *
 *   E-mail:  support@scm.com   info@scm.com                                   *
 *                                                                             *
 *   Scientific publications using ADF results must be properly referenced     *
 *   See the User Manuals (or the web site) for recommended citations          *
 *   The terms and conditions of the End User License Agreement apply to       *
 *   the use of ADF, https://www.scm.com/license-terms/                        *
 *                                                                             *
 **********************  x86_64_linux_intel / intelmpi  ************************
 
 Licensed to: Dr. Carles Bo / Institute of Chemical Research of Catalonia ( (ICIQ) / Tarragona / Spain 2022-11-28 14:37:29
 SCM User ID: u7609
  
 DIRAC 2019  RunTime: Feb10-2023 07:19:33  Nodes: 1  Procs: 1

 Temporary files are created in /scratch/kid_0.513886351

1
 MOLYBDENUM ATOM 3d CORE RELATIVISTIC, Point Nuc, A and c fro
 N J RN H ZN XION ANUC CLIGHT
 5000   15100.00000000197.36710137 42.00000000  0.00000000   97.905406  0.1370360E+03
  PH   PHI     EPS        DEL        DELRVR
  0.30  0.30     2500.00  0.00001000  0.00001000
 IDIRC  NC1  NDEBU NPRIN  IPUN IRCOR IWCOR
   1   300     0     0     0     0     9
   XALPHA      XLATTER      RNUC
  0.70000000  0.00000000  0.00000000 Point Charge
   XN   XL   XJ      XE          XZ      XDELL
  1.0  0.0  0.5   -1500.000       2.000     0.00000
  2.0  0.0  0.5    -325.000       2.000     0.00000
  2.0  1.0  0.5    -325.000       2.000     0.00000
  2.0  1.0  1.5    -325.000       4.000     0.00000
  3.0  0.0  0.5     -70.000       2.000     0.00000
  3.0  1.0  0.5     -70.000       2.000     0.00000
  3.0  1.0  1.5     -70.000       4.000     0.00000
  3.0  2.0  1.5     -60.000       4.000     0.00000
  3.0  2.0  2.5     -60.000       6.000     0.00000
  4.0  0.0  0.5     -10.000       2.000     0.00000
  4.0  1.0  0.5     -10.000       2.000     0.00000
  4.0  1.0  1.5     -10.000       4.000     0.00000
  4.0  2.0  1.5      -1.000       4.000     0.00000
  4.0  2.0  2.5      -1.000       1.000     0.00000
  5.0  0.0  0.5      -0.500       1.000     0.00000
 ICORP=  0  NPCL=  0  DEMP=0.00  PEPS=0.000000
 R(1)=  0.1000000E-08 D=  0.1005080E+01 RNUC=  0.0000000E+00
 converged at cycle   41  DENSITY AVERAGING    0.2400
  MAXIMUM ERROR IN R.V(R) IS   0.93203452E-05
 Q,EY,EV,EZ,ESUM,ETOT,RHO  0.420000E+02 -0.161898E+03 -0.662509E+04 -0.978397E+04 -0.242700E+04 -0.404691E+04  0.342495E-11


 DIRAC CALCULATION
1                    MOLYBDENUM ATOM 3d CORE RELATIVISTIC, Point Nuc, A and c from libtc


 EXCHANGE COEFFICIENT=  0.7000000           TAIL CORRECTION=  0.           NUCLEAR RADIUS=  0.000E+00
0                       ORBITAL    N    L    J     ELECTRONS     EIGENVALUE                DELTA OF EIGENV.

                          1S1/2  1.0  0.0  0.5     2.000       -0.7276812E+03                 0.2822496E-04
                          2S1/2  2.0  0.0  0.5     2.000       -0.1028194E+03                 0.1725465E-04
                          2P1/2  2.0  1.0  0.5     2.000       -0.9468016E+02                 0.1864325E-04
                          2P3/2  2.0  1.0  1.5     4.000       -0.9076266E+02                 0.1832345E-04
                          3S1/2  3.0  0.0  0.5     2.000       -0.1747094E+02                 0.5979346E-05
                          3P1/2  3.0  1.0  0.5     2.000       -0.1436574E+02                 0.6275079E-05
                          3P3/2  3.0  1.0  1.5     4.000       -0.1371946E+02                 0.5984426E-05
                          3D3/2  3.0  2.0  1.5     4.000       -0.8203697E+01                 0.6709395E-05
                          3D5/2  3.0  2.0  2.5     6.000       -0.8081013E+01                 0.6610438E-05
                          4S1/2  4.0  0.0  0.5     2.000       -0.2338238E+01                 0.2446887E-06
                          4P1/2  4.0  1.0  0.5     2.000       -0.1452045E+01                 0.2971982E-06
                          4P3/2  4.0  1.0  1.5     4.000       -0.1358936E+01                 0.3186552E-06
                          4D3/2  4.0  2.0  1.5     4.000       -0.1184046E+00                 0.3378248E-06
                          4D5/2  4.0  2.0  2.5     1.000       -0.1108976E+00                 0.3342679E-06
                          5S1/2  5.0  0.0  0.5     1.000       -0.1320069E+00                 0.9757102E-07


                                        NUCLEAR CHARGE=   42.000000
                            INTEGRAL OF CHARGE DENSITY=   42.000000
                           SUM OF THE ORBITAL ENERGIES=  -2426.9970
                                          TOTAL ENERGY=  -4046.9128
                                        KINETIC ENERGY=   4198.0886
                             NUCLEAR ATTRACTION ENERGY=  -9783.9685
                             ELECTRON REPULSION ENERGY=   1660.3903
                                       EXCHANGE ENERGY=   -121.4232

 *******************************************************************************

                             D I R A C   E X I T
 NORMAL TERMINATION



 =================
 Timing Statistics
 =================
  
 Total Used :                     CPU=        0.36      System=        0.00     Elapsed=        0.37

 Calls  Section                     ( Mean, Percentage )
 ---------------------------------------------------------------------------------------------------
     2  ><      ................      0.00    0.00             0.00    0.00             0.00    0.00
     1  EXIT PROCEDURE .........      0.36  100.00             0.00    0.00             0.37  100.00


 Currently Open Files (EXIT00)
 ====================

 Unit    Access Format  Status   Type       Ident (file)
 -------------------------------------------------------
   3      SEQ    FORM   TRANSP  NORMAL      LOGFILE
                                          ( logfile )
 
Create Mo   file=TZP-Mo.3d
XC
  GGA PBE
End
relativistic ZORA
Corepotentials t12.rel
End

 *******************************************************************************
 *                                                                             *
 *  -------------------------------------                                      *
 *   Amsterdam Density Functional  (ADF)         2019                          *
 *  -------------------------------------                                      *
 *                                               r74351 2019-04-25             *
 *                                                                             *
 *                                                                             *
 *                              =================                              *
 *                              |               |                              *
 *                              |     A D F     |                              *
 *                              |               |                              *
 *                              =================                              *
 *                                                                             *
 *                                                                             *
 *   Online information and documentation:  https://www.scm.com/support/       *
 *   E-mail:  support@scm.com   info@scm.com                                   *
 *                                                                             *
 *   Scientific publications using ADF results must be properly referenced     *
 *   See the User Manuals (or the web site) for recommended citations          *
 *   The terms and conditions of the End User License Agreement apply to       *
 *   the use of ADF, https://www.scm.com/license-terms/                        *
 *                                                                             *
 **********************  x86_64_linux_intel / intelmpi  ************************
 
 Licensed to: Dr. Carles Bo / Institute of Chemical Research of Catalonia ( (ICIQ) / Tarragona / Spain 2022-11-28 14:37:29
 SCM User ID: u7609
  
 ADF 2019  RunTime: Feb10-2023 07:19:33  Nodes: 1  Procs: 1

 Temporary files are created in /scratch/kid_0.898143132

 Molybdenum (TZP, 3d frozen)



 ===========================
 A T T A C H E D   F I L E S
 ===========================
  
 CREATE - Data File:    TZP-Mo.3d
                        Molybdenum (TZP, 3d frozen)
 Core Potentials:
         file : t12.rel



 ===============================
 M O D E L   P A R A M E T E R S
 ===============================
  
 DENSITY FUNCTIONAL POTENTIAL (scf)
    LDA:                               PW92                                    == Not Default ==
    Gradient Corrections:              PBEc PBEx                               == Not Default ==

 SPIN  (restricted / unrestr.)
    Molecule:                          Restricted                               

 OTHER ASPECTS
    Relativistic Corrections:          scalar (ZORA,MAPA)                      == Not Default ==

    Nuclear Charge Density Model:      Point Charge Nuclei                      
    Core Treatment:                    Frozen Orbital(s)                        

    Hyperfine or Zeeman Interaction:   ---                                      



 =====================================
 S Y M M E T R Y ,   E L E C T R O N S
 =====================================
  
 Symmetry: ATOM

 Irreducible Representations, including subspecies
 -------------------------------------------------
 S
 P:x  P:y  P:z
 D:z2  D:x2-y2  D:xy  D:xz  D:yz
 F:z3  F:z  F:xyz  F:z2x  F:z2y  F:x  F:y


 Configuration of Valence Electrons
 ==================================

          Occupation Numbers
          -------------------------------------------------
 S        2 1
 P        6
 D        5
 F        0
          -------------------------------------------------

 Total:   14

 Net Charge: 0 (Nuclei minus Electrons)

 Preset values for MO occupations will be applied through SCF cycle no. 1000000
 Thereafter, the program will assign electrons to MOs that are spatially
 similar to the occupied MOs in a "reference" cycle ("KeepOrbitals").
 The reference cycle is always the PREVIOUS cycle: it will evolve with
 the SCF procedure.



 ================================
 (Slater-type)  F U N C T I O N S  ***  (Basis and Fit)  ***
 ================================
  

 Atom Type    1  (Mo)
 ==============

 Valence Basis Sets:  18
 -----------------------
   1 S   30.500000
   2 S   17.750000
   3 S    8.350000
   2 P   18.600000
   3 P    8.700000
   3 D   10.050000
   4 S    5.100000
   4 S    3.300000
   5 S    2.150000
   5 S    1.350000
   5 S    0.870000
   4 P    4.950000
   4 P    3.300000
   4 P    2.300000
   4 D    3.500000
   4 D    1.850000
   4 D    0.970000
   5 P    1.350000

 Frozen Core Shells
 ------------------
    S:  3
    P:  2
    D:  1


 BAS: List of all Elementary Cartesian Basis Functions
 =====================================================

 The numbering in the list below (to the right of the function characteristics) is referred
 to in print-outs of MO eigenvectors and Mulliken populations in the BAS representation
 (as contrasted to the SFO representation).

 Notes:
 1. The functions are characterized by a polynomial prefactor (powers of x,y,z and r) and
    an exponential decay factor alpha.
 2. Since the basis sets are specific for an atom TYPE, the individual functions occur on
    all atoms of that type.
 3. The word 'Core' in the left margin signals that it is a Core Function (CF) : not a
    degree of freedom in the valence set, but only used to ensure orthogonalization of
    the other valence basis functions on the frozen Core Orbitals.


 (power of) X  Y  Z  R     Alpha  on Atom
            ==========     =====     ==========

 Mo                                   1
                                  ---------------------------------------------------------------------------
    Core    0  0  0  0    30.500      1
    Core    0  0  0  1    17.750      2
    Core    0  0  0  2     8.350      3
    Core    1  0  0  0    18.600      4
    Core    0  1  0  0    18.600      5
    Core    0  0  1  0    18.600      6
    Core    1  0  0  1     8.700      7
    Core    0  1  0  1     8.700      8
    Core    0  0  1  1     8.700      9
    Core    2  0  0  0    10.050     10
    Core    1  1  0  0    10.050     11
    Core    1  0  1  0    10.050     12
    Core    0  2  0  0    10.050     13
    Core    0  1  1  0    10.050     14
    Core    0  0  2  0    10.050     15
            0  0  0  3     5.100     16
            0  0  0  3     3.300     17
            0  0  0  4     2.150     18
            0  0  0  4     1.350     19
            0  0  0  4     0.870     20
            1  0  0  2     4.950     21
            0  1  0  2     4.950     22
            0  0  1  2     4.950     23
            1  0  0  2     3.300     24
            0  1  0  2     3.300     25
            0  0  1  2     3.300     26
            1  0  0  2     2.300     27
            0  1  0  2     2.300     28
            0  0  1  2     2.300     29
            2  0  0  1     3.500     30
            1  1  0  1     3.500     31
            1  0  1  1     3.500     32
            0  2  0  1     3.500     33
            0  1  1  1     3.500     34
            0  0  2  1     3.500     35
            2  0  0  1     1.850     36
            1  1  0  1     1.850     37
            1  0  1  1     1.850     38
            0  2  0  1     1.850     39
            0  1  1  1     1.850     40
            0  0  2  1     1.850     41
            2  0  0  1     0.970     42
            1  1  0  1     0.970     43
            1  0  1  1     0.970     44
            0  2  0  1     0.970     45
            0  1  1  1     0.970     46
            0  0  2  1     0.970     47
            1  0  0  3     1.350     48
            0  1  0  3     1.350     49
            0  0  1  3     1.350     50

 Total number of charge fitting functions (nprimf)       230
 Total number of Cartesian basis functions (naos)         50
 Total number of Cartesian core functions  (ncos)         15



 BAS: List of all Elementary Cartesian Basis Functions
 =====================================================

 The numbering in the list below (to the right of the function characteristics) is referred
 to in print-outs of MO eigenvectors and Mulliken populations in the BAS representation
 (as contrasted to the SFO representation).

 Notes:
 1. The functions are characterized by a polynomial prefactor (powers of x,y,z and r) and
    an exponential decay factor alpha.
 2. Since the basis sets are specific for an atom TYPE, the individual functions occur on
    all atoms of that type.
 3. The word 'Core' in the left margin signals that it is a Core Function (CF) : not a
    degree of freedom in the valence set, but only used to ensure orthogonalization of
    the other valence basis functions on the frozen Core Orbitals.


 (power of) X  Y  Z  R     Alpha  on Atom
            ==========     =====     ==========

 Mo                                   1
                                  ---------------------------------------------------------------------------
    Core    0  0  0  0    30.500      1
    Core    0  0  0  1    17.750      2
    Core    0  0  0  2     8.350      3
    Core    1  0  0  0    18.600      4
    Core    0  1  0  0    18.600      5
    Core    0  0  1  0    18.600      6
    Core    1  0  0  1     8.700      7
    Core    0  1  0  1     8.700      8
    Core    0  0  1  1     8.700      9
    Core    2  0  0  0    10.050     10
    Core    1  1  0  0    10.050     11
    Core    1  0  1  0    10.050     12
    Core    0  2  0  0    10.050     13
    Core    0  1  1  0    10.050     14
    Core    0  0  2  0    10.050     15
            0  0  0  3     5.100     16
            0  0  0  3     3.300     17
            0  0  0  4     2.150     18
            0  0  0  4     1.350     19
            0  0  0  4     0.870     20
            1  0  0  2     4.950     21
            0  1  0  2     4.950     22
            0  0  1  2     4.950     23
            1  0  0  2     3.300     24
            0  1  0  2     3.300     25
            0  0  1  2     3.300     26
            1  0  0  2     2.300     27
            0  1  0  2     2.300     28
            0  0  1  2     2.300     29
            2  0  0  1     3.500     30
            1  1  0  1     3.500     31
            1  0  1  1     3.500     32
            0  2  0  1     3.500     33
[...]
   17.O         0.683658    1.402869    2.246389
   18.H         0.109194    2.118196    1.887843
 <Feb10-2023> <07:26:32>  >>>> CORORT
 <Feb10-2023> <07:26:32>  >>>> CLSMAT
 <Feb10-2023> <07:26:32>  >>>> ORTHON
 <Feb10-2023> <07:26:32>  >>>> GENPT
 <Feb10-2023> <07:26:33>  Block Length= 128
 <Feb10-2023> <07:26:33>  >>>> PTBAS
 <Feb10-2023> <07:26:33>  combining surface points...
 <Feb10-2023> <07:26:33>  combining surface points...
 <Feb10-2023> <07:26:33>  combining surface points...
 <Feb10-2023> <07:26:33>  >>>> CYCLE
 <Feb10-2023> <07:26:35>              |Error|         MaxErr       Wt(A-DIIS)
 <Feb10-2023> <07:26:35>      1      0.12505970      0.01288805
 <Feb10-2023> <07:26:37>      2      1.42582739      0.28319539    100.0
 <Feb10-2023> <07:26:38>      3      0.39905387      0.05314982    100.0
 <Feb10-2023> <07:26:39>      4      0.14575596      0.02309429     22.3
 <Feb10-2023> <07:26:41>      5      0.13388153      0.02205570     21.3
 <Feb10-2023> <07:26:42>      6      0.23684276      0.02772633    100.0
 <Feb10-2023> <07:26:43>      7      0.18820417      0.02758034    100.0
 <Feb10-2023> <07:26:44>      8      0.06970241      0.01106148     10.2
 <Feb10-2023> <07:26:46>      9      0.04215969      0.00782274      6.9
 <Feb10-2023> <07:26:47>     10      0.01107784      0.00141207      0.4
 <Feb10-2023> <07:26:48>     11      0.00519206      0.00073366      0.0
 <Feb10-2023> <07:26:49>     12      0.00172127      0.00028968      0.0
 <Feb10-2023> <07:26:51>     13      0.00079368      0.00011878      0.0
 <Feb10-2023> <07:26:52>     14      0.00108117      0.00015271      0.0
 <Feb10-2023> <07:26:53>     15      0.00009782      0.00001308      0.0
 <Feb10-2023> <07:26:54>     16      0.00015719      0.00002249      0.0
 <Feb10-2023> <07:26:55>     17      0.00005078      0.00000934      0.0
 <Feb10-2023> <07:26:56>     18      0.00004491      0.00000547      0.0
 <Feb10-2023> <07:26:57>     19      0.00000968      0.00000130      0.0
 <Feb10-2023> <07:26:59>     20      0.00001756      0.00000309      0.0
 <Feb10-2023> <07:27:00>     21      0.00000370      0.00000051      0.0
 <Feb10-2023> <07:27:00>  SCF converged
 <Feb10-2023> <07:27:01>     22      0.00000306      0.00000044      0.0
 <Feb10-2023> <07:27:01>  >>>> TOTEN
 <Feb10-2023> <07:27:03>  >>>> POPAN
 <Feb10-2023> <07:27:03>  >>>> DEBYE
 <Feb10-2023> <07:27:03>  >>>> ENGRAD
 <Feb10-2023> <07:27:07>  current energy                               -5.34526997 Hartree
 <Feb10-2023> <07:27:07>  energy change                       0.00000594     0.00100000    T
 <Feb10-2023> <07:27:07>  constrained gradient max            0.00449613     0.00100000    F
 <Feb10-2023> <07:27:07>  constrained gradient rms            0.00127759     0.00066667    F
 <Feb10-2023> <07:27:07>  gradient max                        0.00449613
 <Feb10-2023> <07:27:07>  gradient rms                        0.00127759
 <Feb10-2023> <07:27:07>  cart. step max                      0.00675642     0.01000000    T
 <Feb10-2023> <07:27:07>  cart. step rms                      0.00254514     0.00666667    T
  Coordinates in Geometry Cycle 13
    Atom         X           Y           Z   (Angstrom)
    1.O        -1.911729    0.174029   -1.401151
    2.O         1.101556    1.545044   -1.489153
    3.Mo       -0.779106    1.716365   -1.086586
    4.Mo       -1.068559   -1.566303   -1.117610
    5.O         0.830250   -1.784211   -1.463758
    6.Mo        1.907939   -0.199266   -1.141674
    7.O        -1.645081   -2.458443    0.242468
    8.O         2.950337   -0.282106   -2.530355
    9.O         2.973391   -0.271066    0.213100
   10.O        -1.294710    2.728703   -2.400470
   11.O        -1.103069    2.647758    0.345271
   12.O        -1.713954   -2.393741   -2.504039
   13.O         0.042104   -0.037057    0.225559
   14.P        -0.072796   -0.030913    1.904612
   15.O         0.802238   -1.122381    2.465486
   16.O        -1.538477    0.063786    2.262007
   17.O         0.679796    1.401888    2.246968
   18.H         0.106405    2.115982    1.883859
 <Feb10-2023> <07:27:07>  >>>> CORORT
 <Feb10-2023> <07:27:07>  >>>> CLSMAT
 <Feb10-2023> <07:27:07>  >>>> ORTHON
 <Feb10-2023> <07:27:07>  >>>> GENPT
 <Feb10-2023> <07:27:07>  Block Length= 128
 <Feb10-2023> <07:27:07>  >>>> PTBAS
 <Feb10-2023> <07:27:08>  combining surface points...
 <Feb10-2023> <07:27:08>  combining surface points...
 <Feb10-2023> <07:27:08>  combining surface points...
 <Feb10-2023> <07:27:08>  >>>> CYCLE
 <Feb10-2023> <07:27:10>              |Error|         MaxErr       Wt(A-DIIS)
 <Feb10-2023> <07:27:10>      1      0.12364303      0.01263950
 <Feb10-2023> <07:27:11>      2      1.41469590      0.27989781    100.0
 <Feb10-2023> <07:27:13>      3      0.39906481      0.05351334    100.0
 <Feb10-2023> <07:27:14>      4      0.14468924      0.02318337     22.4
 <Feb10-2023> <07:27:15>      5      0.13822968      0.02166319     20.9
 <Feb10-2023> <07:27:16>      6      0.24530617      0.02974975    100.0
 <Feb10-2023> <07:27:18>      7      0.17980310      0.02748860    100.0
 <Feb10-2023> <07:27:19>      8      0.07112907      0.01137652     10.5
 <Feb10-2023> <07:27:20>      9      0.04170648      0.00788701      7.0
 <Feb10-2023> <07:27:21>     10      0.01145202      0.00136837      0.4
 <Feb10-2023> <07:27:23>     11      0.00509738      0.00073133      0.0
 <Feb10-2023> <07:27:24>     12      0.00171305      0.00030001      0.0
 <Feb10-2023> <07:27:25>     13      0.00079584      0.00012157      0.0
 <Feb10-2023> <07:27:26>     14      0.00108649      0.00016224      0.0
 <Feb10-2023> <07:27:28>     15      0.00009644      0.00001167      0.0
 <Feb10-2023> <07:27:29>     16      0.00014605      0.00001926      0.0
 <Feb10-2023> <07:27:30>     17      0.00004648      0.00000853      0.0
 <Feb10-2023> <07:27:31>     18      0.00004605      0.00000676      0.0
 <Feb10-2023> <07:27:32>     19      0.00000837      0.00000110      0.0
 <Feb10-2023> <07:27:33>     20      0.00001365      0.00000242      0.0
 <Feb10-2023> <07:27:34>     21      0.00000274      0.00000041      0.0
 <Feb10-2023> <07:27:35>  SCF converged
 <Feb10-2023> <07:27:35>     22      0.00000252      0.00000029      0.0
 <Feb10-2023> <07:27:36>  >>>> TOTEN
 <Feb10-2023> <07:27:37>  >>>> POPAN
 <Feb10-2023> <07:27:37>  >>>> DEBYE
 <Feb10-2023> <07:27:37>  >>>> ENGRAD
 <Feb10-2023> <07:27:41>  current energy                               -5.34525907 Hartree
 <Feb10-2023> <07:27:41>  energy change                       0.00001090     0.00100000    T
 <Feb10-2023> <07:27:41>  constrained gradient max            0.00213044     0.00100000    F
 <Feb10-2023> <07:27:41>  constrained gradient rms            0.00057086     0.00066667    T
 <Feb10-2023> <07:27:41>  gradient max                        0.00213044
 <Feb10-2023> <07:27:41>  gradient rms                        0.00057086
 <Feb10-2023> <07:27:41>  cart. step max                      0.00709482     0.01000000    T
 <Feb10-2023> <07:27:41>  cart. step rms                      0.00151171     0.00666667    T
  Coordinates in Geometry Cycle 14
    Atom         X           Y           Z   (Angstrom)
    1.O        -1.912522    0.174856   -1.398430
    2.O         1.101104    1.544614   -1.489553
    3.Mo       -0.778613    1.716000   -1.086812
    4.Mo       -1.067727   -1.565094   -1.116110
    5.O         0.830590   -1.785127   -1.463612
    6.Mo        1.907159   -0.199944   -1.140877
    7.O        -1.644896   -2.459574    0.242676
    8.O         2.948445   -0.282657   -2.530695
    9.O         2.974175   -0.270316    0.213262
   10.O        -1.295024    2.729836   -2.399575
   11.O        -1.099980    2.647343    0.346328
   12.O        -1.712424   -2.390626   -2.504313
   13.O         0.043071   -0.036937    0.225661
   14.P        -0.072723   -0.031125    1.905413
   15.O         0.802912   -1.122091    2.466962
   16.O        -1.539325    0.061688    2.260097
   17.O         0.676910    1.402507    2.247348
   18.H         0.105403    2.114715    1.876765
 <Feb10-2023> <07:27:42>  >>>> CORORT
 <Feb10-2023> <07:27:42>  >>>> CLSMAT
 <Feb10-2023> <07:27:42>  >>>> ORTHON
 <Feb10-2023> <07:27:42>  >>>> GENPT
 <Feb10-2023> <07:27:42>  Block Length= 128
 <Feb10-2023> <07:27:42>  >>>> PTBAS
 <Feb10-2023> <07:27:43>  combining surface points...
 <Feb10-2023> <07:27:43>  combining surface points...
 <Feb10-2023> <07:27:43>  combining surface points...
 <Feb10-2023> <07:27:43>  >>>> CYCLE
 <Feb10-2023> <07:27:45>              |Error|         MaxErr       Wt(A-DIIS)
 <Feb10-2023> <07:27:45>      1      0.12240695      0.01283621
 <Feb10-2023> <07:27:46>      2      1.40772702      0.27774287    100.0
 <Feb10-2023> <07:27:47>      3      0.40639040      0.05415821    100.0
 <Feb10-2023> <07:27:49>      4      0.13356823      0.01694047     16.1
 <Feb10-2023> <07:27:50>      5      0.14665867      0.02142699     16.1
 <Feb10-2023> <07:27:51>      6      0.24262820      0.03071771    100.0
 <Feb10-2023> <07:27:52>      7      0.26128706      0.04100730    100.0
 <Feb10-2023> <07:27:54>      8      0.05716542      0.00914146      8.2
 <Feb10-2023> <07:27:55>      9      0.03125755      0.00601629      5.1
 <Feb10-2023> <07:27:56>     10      0.01193985      0.00167011      0.7
 <Feb10-2023> <07:27:57>     11      0.00539489      0.00066464      0.0
 <Feb10-2023> <07:27:59>     12      0.00236687      0.00036388      0.0
 <Feb10-2023> <07:28:00>     13      0.00118041      0.00016671      0.0
 <Feb10-2023> <07:28:01>     14      0.00051230      0.00008081      0.0
 <Feb10-2023> <07:28:02>     15      0.00024328      0.00003519      0.0
 <Feb10-2023> <07:28:03>     16      0.00022448      0.00003067      0.0
 <Feb10-2023> <07:28:05>     17      0.00010448      0.00001818      0.0
 <Feb10-2023> <07:28:06>     18      0.00005581      0.00000737      0.0
 <Feb10-2023> <07:28:07>     19      0.00002484      0.00000369      0.0
 <Feb10-2023> <07:28:08>     20      0.00001785      0.00000280      0.0
 <Feb10-2023> <07:28:09>     21      0.00001913      0.00000330      0.0
 <Feb10-2023> <07:28:10>     22      0.00000832      0.00000112      0.0
 <Feb10-2023> <07:28:11>     23      0.00000602      0.00000072      0.0
 <Feb10-2023> <07:28:12>  SCF converged
 <Feb10-2023> <07:28:12>     24      0.00000372      0.00000059      0.0
 <Feb10-2023> <07:28:13>  >>>> TOTEN
 <Feb10-2023> <07:28:14>  >>>> POPAN
 <Feb10-2023> <07:28:14>  >>>> DEBYE
 <Feb10-2023> <07:28:14>  >>>> ENGRAD
 <Feb10-2023> <07:28:18>  current energy                               -5.34525181 Hartree
 <Feb10-2023> <07:28:18>  energy change                       0.00000726     0.00100000    T
 <Feb10-2023> <07:28:18>  constrained gradient max            0.00144042     0.00100000    F
 <Feb10-2023> <07:28:18>  constrained gradient rms            0.00038329     0.00066667    T
 <Feb10-2023> <07:28:18>  gradient max                        0.00144042
 <Feb10-2023> <07:28:18>  gradient rms                        0.00038329
 <Feb10-2023> <07:28:18>  cart. step max                      0.00661161     0.01000000    T
 <Feb10-2023> <07:28:18>  cart. step rms                      0.00191416     0.00666667    T
  Coordinates in Geometry Cycle 15
    Atom         X           Y           Z   (Angstrom)
    1.O        -1.912870    0.176006   -1.395739
    2.O         1.101123    1.543680   -1.490465
    3.Mo       -0.777338    1.715409   -1.087311
    4.Mo       -1.066827   -1.563712   -1.114633
    5.O         0.830819   -1.786287   -1.463022
    6.Mo        1.906638   -0.201195   -1.140706
    7.O        -1.644476   -2.460566    0.242406
    8.O         2.946304   -0.283825   -2.531787
    9.O         2.975290   -0.270315    0.212241
   10.O        -1.295003    2.732058   -2.397441
   11.O        -1.095414    2.645641    0.347742
   12.O        -1.711297   -2.387065   -2.504291
   13.O         0.044571   -0.037102    0.226001
   14.P        -0.072755   -0.031026    1.906234
   15.O         0.804445   -1.120241    2.468937
   16.O        -1.540061    0.058118    2.258565
   17.O         0.672275    1.404549    2.247649
   18.H         0.101110    2.113941    1.870153
 <Feb10-2023> <07:28:19>  >>>> CORORT
 <Feb10-2023> <07:28:19>  >>>> CLSMAT
 <Feb10-2023> <07:28:19>  >>>> ORTHON
 <Feb10-2023> <07:28:19>  >>>> GENPT
 <Feb10-2023> <07:28:19>  Block Length= 128
 <Feb10-2023> <07:28:19>  >>>> PTBAS
 <Feb10-2023> <07:28:20>  combining surface points...
 <Feb10-2023> <07:28:20>  combining surface points...
 <Feb10-2023> <07:28:20>  combining surface points...
 <Feb10-2023> <07:28:20>  >>>> CYCLE
 <Feb10-2023> <07:28:22>              |Error|         MaxErr       Wt(A-DIIS)
 <Feb10-2023> <07:28:22>      1      0.12251204      0.01284903
 <Feb10-2023> <07:28:23>      2      1.40523504      0.27676958    100.0
 <Feb10-2023> <07:28:24>      3      0.41041749      0.05442559    100.0
 <Feb10-2023> <07:28:26>      4      0.13170576      0.01370891     12.8
 <Feb10-2023> <07:28:27>      5      0.15406407      0.02145627    100.0
 <Feb10-2023> <07:28:28>      6      0.44864960      0.06417312    100.0
 <Feb10-2023> <07:28:29>      7      0.13630726      0.02878714     28.1
 <Feb10-2023> <07:28:31>      8      0.06973653      0.00893063      8.0
 <Feb10-2023> <07:28:32>      9      0.03802263      0.00600068      5.1
 <Feb10-2023> <07:28:33>     10      0.01091444      0.00169593      0.7
 <Feb10-2023> <07:28:34>     11      0.00464010      0.00073927      0.0
 <Feb10-2023> <07:28:36>     12      0.00133983      0.00020204      0.0
 <Feb10-2023> <07:28:37>     13      0.00064233      0.00010245      0.0
 <Feb10-2023> <07:28:38>     14      0.00110341      0.00023106      0.0
 <Feb10-2023> <07:28:39>     15      0.00015219      0.00002465      0.0
 <Feb10-2023> <07:28:40>     16      0.00010855      0.00001366      0.0
 <Feb10-2023> <07:28:41>     17      0.00006410      0.00001301      0.0
 <Feb10-2023> <07:28:43>     18      0.00001414      0.00000220      0.0
 <Feb10-2023> <07:28:44>     19      0.00002427      0.00000372      0.0
 <Feb10-2023> <07:28:45>     20      0.00001838      0.00000297      0.0
 <Feb10-2023> <07:28:46>     21      0.00001343      0.00000188      0.0
 <Feb10-2023> <07:28:47>     22      0.00000594      0.00000072      0.0
 <Feb10-2023> <07:28:47>  SCF converged
 <Feb10-2023> <07:28:48>     23      0.00000318      0.00000053      0.0
 <Feb10-2023> <07:28:49>  >>>> TOTEN
 <Feb10-2023> <07:28:50>  >>>> POPAN
 <Feb10-2023> <07:28:50>  >>>> DEBYE
 <Feb10-2023> <07:28:50>  >>>> ENGRAD
 <Feb10-2023> <07:28:54>  current energy                               -5.34523774 Hartree
 <Feb10-2023> <07:28:54>  energy change                       0.00001407     0.00100000    T
 <Feb10-2023> <07:28:54>  constrained gradient max            0.00091443     0.00100000    T
 <Feb10-2023> <07:28:54>  constrained gradient rms            0.00032623     0.00066667    T
 <Feb10-2023> <07:28:54>  gradient max                        0.00091443
 <Feb10-2023> <07:28:54>  gradient rms                        0.00032623
 <Feb10-2023> <07:28:54>  cart. step max                      0.00199480     0.01000000    T
 <Feb10-2023> <07:28:54>  cart. step rms                      0.00088862     0.00666667    T
 <Feb10-2023> <07:28:54>  GEOMETRY CONVERGED
 <Feb10-2023> <07:28:54>  Calculating Energy Terms for Final Geometry
  Coordinates in Geometry Cycle 15
    Atom         X           Y           Z   (Angstrom)
    1.O        -1.912870    0.176006   -1.395739
    2.O         1.101123    1.543680   -1.490465
    3.Mo       -0.777338    1.715409   -1.087311
    4.Mo       -1.066827   -1.563712   -1.114633
    5.O         0.830819   -1.786287   -1.463022
    6.Mo        1.906638   -0.201195   -1.140706
    7.O        -1.644476   -2.460566    0.242406
    8.O         2.946304   -0.283825   -2.531787
    9.O         2.975290   -0.270315    0.212241
   10.O        -1.295003    2.732058   -2.397441
   11.O        -1.095414    2.645641    0.347742
   12.O        -1.711297   -2.387065   -2.504291
   13.O         0.044571   -0.037102    0.226001
   14.P        -0.072755   -0.031026    1.906234
   15.O         0.804445   -1.120241    2.468937
   16.O        -1.540061    0.058118    2.258565
   17.O         0.672275    1.404549    2.247649
   18.H         0.101110    2.113941    1.870153
 <Feb10-2023> <07:28:54>  >>>> CORORT
 <Feb10-2023> <07:28:54>  >>>> CLSMAT
 <Feb10-2023> <07:28:54>  >>>> ORTHON
 <Feb10-2023> <07:28:54>  >>>> GENPT
 <Feb10-2023> <07:28:54>  Block Length= 128
 <Feb10-2023> <07:28:55>  >>>> PTBAS
 <Feb10-2023> <07:28:55>  combining surface points...
 <Feb10-2023> <07:28:55>  combining surface points...
 <Feb10-2023> <07:28:55>  combining surface points...
 <Feb10-2023> <07:28:55>  >>>> CYCLE
 <Feb10-2023> <07:28:57>              |Error|         MaxErr       Wt(A-DIIS)
 <Feb10-2023> <07:28:57>      1      0.12214195      0.01413372
 <Feb10-2023> <07:28:59>      2      1.40571106      0.23730951    100.0
 <Feb10-2023> <07:29:00>      3      0.40257683      0.06728406    100.0
 <Feb10-2023> <07:29:02>      4      0.13738869      0.01929596     18.5
 <Feb10-2023> <07:29:03>      5      0.14068624      0.01976256     18.5
 <Feb10-2023> <07:29:04>      6      0.24522914      0.03731202    100.0
 <Feb10-2023> <07:29:05>      7      0.21847913      0.03310130    100.0
 <Feb10-2023> <07:29:07>      8      0.06512848      0.01079594      9.9
 <Feb10-2023> <07:29:08>      9      0.03910477      0.00883384      7.9
 <Feb10-2023> <07:29:09>     10      0.01197216      0.00154689      0.6
 <Feb10-2023> <07:29:10>     11      0.00524845      0.00070910      0.0
 <Feb10-2023> <07:29:11>     12      0.00204840      0.00031048      0.0
 <Feb10-2023> <07:29:13>     13      0.00092384      0.00015541      0.0
 <Feb10-2023> <07:29:14>     14      0.00036397      0.00005033      0.0
 <Feb10-2023> <07:29:15>     15      0.00015756      0.00002425      0.0
 <Feb10-2023> <07:29:16>     16      0.00016174      0.00002502      0.0
 <Feb10-2023> <07:29:17>     17      0.00006106      0.00000992      0.0
 <Feb10-2023> <07:29:19>     18      0.00005361      0.00001018      0.0
 <Feb10-2023> <07:29:20>     19      0.00001335      0.00000210      0.0
 <Feb10-2023> <07:29:21>     20      0.00001752      0.00000384      0.0
 <Feb10-2023> <07:29:22>     21      0.00000782      0.00000137      0.0
 <Feb10-2023> <07:29:23>     22      0.00000616      0.00000084      0.0
 <Feb10-2023> <07:29:23>  SCF converged
 <Feb10-2023> <07:29:24>     23      0.00000364      0.00000049      0.0
 <Feb10-2023> <07:29:25>  >>>> TOTEN
 <Feb10-2023> <07:29:28>  QTAIM: determining topology...
 <Feb10-2023> <07:29:29>  >>>> POPAN
 <Feb10-2023> <07:29:29>  >>>> DEBYE
 <Feb10-2023> <07:29:29>  >>>> AMETS
 <Feb10-2023> <07:29:29>  >>>> POPUL
 <Feb10-2023> <07:29:29>   Bond Energy          -5.34523774 a.u.
 <Feb10-2023> <07:29:29>   Bond Energy        -145.45131942 eV
 <Feb10-2023> <07:29:29>   Bond Energy       -3354.19       kcal/mol
 <Feb10-2023> <07:29:29>  >>>> ENHESS
 <Feb10-2023> <07:29:32>  === NUCLEUS:     1
 <Feb10-2023> <07:30:40>  === NUCLEUS:     2
 <Feb10-2023> <07:31:45>  === NUCLEUS:     3
 <Feb10-2023> <07:32:49>  === NUCLEUS:     4
 <Feb10-2023> <07:33:55>  === NUCLEUS:     5
 <Feb10-2023> <07:35:00>  === NUCLEUS:     6
 <Feb10-2023> <07:36:04>  === NUCLEUS:     7
 <Feb10-2023> <07:37:10>  === NUCLEUS:     8
 <Feb10-2023> <07:38:16>  === NUCLEUS:     9
 <Feb10-2023> <07:39:19>  === NUCLEUS:    10
 <Feb10-2023> <07:40:22>  === NUCLEUS:    11
 <Feb10-2023> <07:41:27>  === NUCLEUS:    12
 <Feb10-2023> <07:42:30>  === NUCLEUS:    13
 <Feb10-2023> <07:43:36>  === NUCLEUS:    14
 <Feb10-2023> <07:44:46>  === NUCLEUS:    15
 <Feb10-2023> <07:45:56>  === NUCLEUS:    16
 <Feb10-2023> <07:47:05>  === NUCLEUS:    17
 <Feb10-2023> <07:48:15>  === NUCLEUS:    18
 <Feb10-2023> <07:49:18>  >>>> CALC_HESS_PMAT
 <Feb10-2023> <07:49:28>  >>>> CALC_HESS_WMAT
 <Feb10-2023> <07:49:29>  NORMAL TERMINATION
 <Feb10-2023> <07:49:29>  END
