
 *******************************************************************************
 *                                                                             *
 *  -------------------------------------                                      *
 *   Amsterdam Density Functional  (ADF)         2019                          *
 *  -------------------------------------                                      *
 *                                               r74351 2019-04-25             *
 *                                                                             *
 *                                                                             *
 *                            =====================                            *
 *                            |                   |                            *
 *                            |     D I R A C     |                            *
 *                            |                   |                            *
 *                            =====================                            *
 *                                                                             *
 *                                                                             *
 *   Online information and documentation:  https://www.scm.com/support/       *
 *   E-mail:  support@scm.com   info@scm.com                                   *
 *                                                                             *
 *   Scientific publications using ADF results must be properly referenced     *
 *   See the User Manuals (or the web site) for recommended citations          *
 *   The terms and conditions of the End User License Agreement apply to       *
 *   the use of ADF, https://www.scm.com/license-terms/                        *
 *                                                                             *
 **********************  x86_64_linux_intel / intelmpi  ************************
 
 Licensed to: Dr. Carles Bo / Institute of Chemical Research of Catalonia ( (ICIQ) / Tarragona / Spain 2022-11-28 14:37:29
 SCM User ID: u7609
  
 DIRAC 2019  RunTime: Feb10-2023 06:51:51  Nodes: 1  Procs: 1

 Temporary files are created in /scratch/kid_0.772832979

1
 PHOSPHORUS ATOM 1s CORE RELATIVISTIC, Point Nuc, A and c fro
 N J RN H ZN XION ANUC CLIGHT
 5000    7100.00000000197.36710137 15.00000000  0.00000000   30.973761  0.1370360E+03
  PH   PHI     EPS        DEL        DELRVR
  0.30  0.30     2500.00  0.00001000  0.00001000
 IDIRC  NC1  NDEBU NPRIN  IPUN IRCOR IWCOR
   1   300     0     0     0     0     1
   XALPHA      XLATTER      RNUC
  0.70000000  0.00000000  0.00000000 Point Charge
   XN   XL   XJ      XE          XZ      XDELL
  1.0  0.0  0.5    -600.000       2.000     0.00000
  2.0  0.0  0.5     -75.000       2.000     0.00000
  2.0  1.0  0.5     -70.000       2.000     0.00000
  2.0  1.0  1.5     -70.000       4.000     0.00000
  3.0  0.0  0.5     -25.000       2.000     0.00000
  3.0  1.0  0.5      -0.250       2.000     0.00000
  3.0  1.0  1.5      -0.250       1.000     0.00000
 ICORP=  0  NPCL=  0  DEMP=0.00  PEPS=0.000000
 R(1)=  0.1000000E-08 D=  0.1005080E+01 RNUC=  0.0000000E+00
 converged at cycle   47  DENSITY AVERAGING    0.3000
  MAXIMUM ERROR IN R.V(R) IS   0.93255186E-05
 Q,EY,EV,EZ,ESUM,ETOT,RHO  0.150000E+02 -0.290161E+02 -0.536820E+03 -0.814855E+03 -0.194417E+03 -0.340688E+03  0.340722E-13


 DIRAC CALCULATION
1                    PHOSPHORUS ATOM 1s CORE RELATIVISTIC, Point Nuc, A and c from libtc


 EXCHANGE COEFFICIENT=  0.7000000           TAIL CORRECTION=  0.           NUCLEAR RADIUS=  0.000E+00
0                       ORBITAL    N    L    J     ELECTRONS     EIGENVALUE                DELTA OF EIGENV.

                          1S1/2  1.0  0.0  0.5     2.000       -0.7640874E+02                 0.2597240E-06
                          2S1/2  2.0  0.0  0.5     2.000       -0.6353640E+01                 0.3482713E-07
                          2P1/2  2.0  1.0  0.5     2.000       -0.4588256E+01                 0.3010938E-07
                          2P3/2  2.0  1.0  1.5     4.000       -0.4554413E+01                 0.2993762E-07
                          3S1/2  3.0  0.0  0.5     2.000       -0.4844206E+00                 0.1693624E-07
                          3P1/2  3.0  1.0  0.5     2.000       -0.1770291E+00                 0.1234259E-07
                          3P3/2  3.0  1.0  1.5     1.000       -0.1750217E+00                 0.1224459E-07


                                        NUCLEAR CHARGE=   15.000000
                            INTEGRAL OF CHARGE DENSITY=   15.000000
                           SUM OF THE ORBITAL ENERGIES=   -194.4169
                                          TOTAL ENERGY=   -340.6884
                                        KINETIC ENERGY=    342.4034
                             NUCLEAR ATTRACTION ENERGY=   -814.8554
                             ELECTRON REPULSION ENERGY=    153.5256
                                       EXCHANGE ENERGY=    -21.7621

 *******************************************************************************

                             D I R A C   E X I T
 NORMAL TERMINATION



 =================
 Timing Statistics
 =================
  
 Total Used :                     CPU=        0.21      System=        0.01     Elapsed=        0.23

 Calls  Section                     ( Mean, Percentage )
 ---------------------------------------------------------------------------------------------------
     2  ><      ................      0.00    0.00             0.00    0.00             0.00    0.00
     1  EXIT PROCEDURE .........      0.21  100.00             0.01  100.00             0.23  100.00


 Currently Open Files (EXIT00)
 ====================

 Unit    Access Format  Status   Type       Ident (file)
 -------------------------------------------------------
   3      SEQ    FORM   TRANSP  NORMAL      LOGFILE
                                          ( logfile )
 
Create P   file=TZP-P.1s
XC
  GGA PBE
End
relativistic ZORA
Corepotentials t12.rel
End

 *******************************************************************************
 *                                                                             *
 *  -------------------------------------                                      *
 *   Amsterdam Density Functional  (ADF)         2019                          *
 *  -------------------------------------                                      *
 *                                               r74351 2019-04-25             *
 *                                                                             *
 *                                                                             *
 *                              =================                              *
 *                              |               |                              *
 *                              |     A D F     |                              *
 *                              |               |                              *
 *                              =================                              *
 *                                                                             *
 *                                                                             *
 *   Online information and documentation:  https://www.scm.com/support/       *
 *   E-mail:  support@scm.com   info@scm.com                                   *
 *                                                                             *
 *   Scientific publications using ADF results must be properly referenced     *
 *   See the User Manuals (or the web site) for recommended citations          *
 *   The terms and conditions of the End User License Agreement apply to       *
 *   the use of ADF, https://www.scm.com/license-terms/                        *
 *                                                                             *
 **********************  x86_64_linux_intel / intelmpi  ************************
 
 Licensed to: Dr. Carles Bo / Institute of Chemical Research of Catalonia ( (ICIQ) / Tarragona / Spain 2022-11-28 14:37:29
 SCM User ID: u7609
  
 ADF 2019  RunTime: Feb10-2023 06:51:52  Nodes: 1  Procs: 1

 Temporary files are created in /scratch/kid_0.268871813

 Phosphorus (TZP, 1s frozen)



 ===========================
 A T T A C H E D   F I L E S
 ===========================
  
 CREATE - Data File:    TZP-P.1s
                        Phosphorus (TZP, 1s frozen)
 Core Potentials:
         file : t12.rel



 ===============================
 M O D E L   P A R A M E T E R S
 ===============================
  
 DENSITY FUNCTIONAL POTENTIAL (scf)
    LDA:                               PW92                                    == Not Default ==
    Gradient Corrections:              PBEc PBEx                               == Not Default ==

 SPIN  (restricted / unrestr.)
    Molecule:                          Restricted                               

 OTHER ASPECTS
    Relativistic Corrections:          scalar (ZORA,MAPA)                      == Not Default ==

    Nuclear Charge Density Model:      Point Charge Nuclei                      
    Core Treatment:                    Frozen Orbital(s)                        

    Hyperfine or Zeeman Interaction:   ---                                      



 =====================================
 S Y M M E T R Y ,   E L E C T R O N S
 =====================================
  
 Symmetry: ATOM

 Irreducible Representations, including subspecies
 -------------------------------------------------
 S
 P:x  P:y  P:z
 D:z2  D:x2-y2  D:xy  D:xz  D:yz
 F:z3  F:z  F:xyz  F:z2x  F:z2y  F:x  F:y


 Configuration of Valence Electrons
 ==================================

          Occupation Numbers
          -------------------------------------------------
 S        2*2
 P        6 3
 D        0
 F        0
          -------------------------------------------------

 Total:   13

 Net Charge: 0 (Nuclei minus Electrons)

 Preset values for MO occupations will be applied through SCF cycle no. 1000000
 Thereafter, the program will assign electrons to MOs that are spatially
 similar to the occupied MOs in a "reference" cycle ("KeepOrbitals").
 The reference cycle is always the PREVIOUS cycle: it will evolve with
 the SCF procedure.



 ================================
 (Slater-type)  F U N C T I O N S  ***  (Basis and Fit)  ***
 ================================
  

 Atom Type    1  (P)
 ==============

 Valence Basis Sets:  12
 -----------------------
   1 S   12.550000
   2 S    5.600000
   2 S    4.050000
   2 P    7.450000
   2 P    4.100000
   3 S    1.300000
   3 S    1.850000
   3 S    2.650000
   3 P    0.850000
   3 P    1.300000
   3 P    2.050000
   3 D    1.900000

 Frozen Core Shells
 ------------------
    S:  1


 BAS: List of all Elementary Cartesian Basis Functions
 =====================================================

 The numbering in the list below (to the right of the function characteristics) is referred
 to in print-outs of MO eigenvectors and Mulliken populations in the BAS representation
 (as contrasted to the SFO representation).

 Notes:
 1. The functions are characterized by a polynomial prefactor (powers of x,y,z and r) and
    an exponential decay factor alpha.
 2. Since the basis sets are specific for an atom TYPE, the individual functions occur on
    all atoms of that type.
 3. The word 'Core' in the left margin signals that it is a Core Function (CF) : not a
    degree of freedom in the valence set, but only used to ensure orthogonalization of
    the other valence basis functions on the frozen Core Orbitals.


 (power of) X  Y  Z  R     Alpha  on Atom
            ==========     =====     ==========

 P                                    1
                                  ---------------------------------------------------------------------------
    Core    0  0  0  0    12.550      1
            0  0  0  1     5.600      2
            0  0  0  1     4.050      3
            1  0  0  0     7.450      4
            0  1  0  0     7.450      5
            0  0  1  0     7.450      6
            1  0  0  0     4.100      7
            0  1  0  0     4.100      8
            0  0  1  0     4.100      9
            0  0  0  2     1.300     10
            0  0  0  2     1.850     11
            0  0  0  2     2.650     12
            1  0  0  1     0.850     13
            0  1  0  1     0.850     14
            0  0  1  1     0.850     15
            1  0  0  1     1.300     16
            0  1  0  1     1.300     17
            0  0  1  1     1.300     18
            1  0  0  1     2.050     19
            0  1  0  1     2.050     20
            0  0  1  1     2.050     21
            2  0  0  0     1.900     22
            1  1  0  0     1.900     23
            1  0  1  0     1.900     24
            0  2  0  0     1.900     25
            0  1  1  0     1.900     26
            0  0  2  0     1.900     27

 Total number of charge fitting functions (nprimf)       106
 Total number of Cartesian basis functions (naos)         27
 Total number of Cartesian core functions  (ncos)          1



 BAS: List of all Elementary Cartesian Basis Functions
 =====================================================

 The numbering in the list below (to the right of the function characteristics) is referred
 to in print-outs of MO eigenvectors and Mulliken populations in the BAS representation
 (as contrasted to the SFO representation).

 Notes:
 1. The functions are characterized by a polynomial prefactor (powers of x,y,z and r) and
    an exponential decay factor alpha.
 2. Since the basis sets are specific for an atom TYPE, the individual functions occur on
    all atoms of that type.
 3. The word 'Core' in the left margin signals that it is a Core Function (CF) : not a
    degree of freedom in the valence set, but only used to ensure orthogonalization of
    the other valence basis functions on the frozen Core Orbitals.


 (power of) X  Y  Z  R     Alpha  on Atom
            ==========     =====     ==========

 P                                    1
                                  ---------------------------------------------------------------------------
    Core    0  0  0  0    12.550      1
            0  0  0  1     5.600      2
            0  0  0  1     4.050      3
            1  0  0  0     7.450      4
            0  1  0  0     7.450      5
            0  0  1  0     7.450      6
            1  0  0  0     4.100      7
            0  1  0  0     4.100      8
            0  0  1  0     4.100      9
            0  0  0  2     1.300     10
            0  0  0  2     1.850     11
            0  0  0  2     2.650     12
            1  0  0  1     0.850     13
            0  1  0  1     0.850     14
            0  0  1  1     0.850     15
            1  0  0  1     1.300     16
            0  1  0  1     1.300     17
            0  0  1  1     1.300     18
            1  0  0  1     2.050     19
            0  1  0  1     2.050     20
            0  0  1  1     2.050     21
            2  0  0  0     1.900     22
            1  1  0  0     1.900     23
            1  0  1  0     1.900     24
            0  2  0  0     1.900     25
            0  1  1  0     1.900     26
            0  0  2  0     1.900     27
1
 ***************************************************************************************************



                                              ***********************
                                              *  T E C H N I C A L  *
                                              ***********************
  



 =============================================================
 P A R A L L E L I Z A T I O N  and  V E C T O R I Z A T I O N
 =============================================================
  
 Nr of parallel processes:                                1
 Maximum vector length in NumInt loops:                 128



 =====================
 S C F   U P D A T E S
 =====================
  
 Max. nr. of cycles:                               300
 Convergence criterion:                              0.0000000100
   secondary criterion:                              0.0000000100

 Mix parameter (when DIIS does not apply):           0.2000000000
 Special mix parameter for the first cycle:          1.0000000000
 Mixed ADIIS+SDIIS will be used                  
    Max number of expansion vectors:                10
    Pure ADIIS when Max([F,P]) is above              0.1000000000
    Pure SDIIS when Max([F,P]) is below              0.0010000000
 Automatic ElectronSmearing (in case of problematic SCF convergence) disabled



 =================
 P R E C I S I O N  ***  (General: NumInt, NeglectFunctionTails, ...)  ***
 =================
  

 NumInt:           Target precision:                12.0000000000
 -------           Initial precision:               10.0000000000
                   Min. precision (optimization):   10.0000000000

 Neglect Functions:          Basis functions:        0.1000000000E-13
 ------------------          Fit functions:          0.1000000000E-13



 ===========================
 L I N E A R   S C A L I N G
 ===========================
  

 Cut-off radii density fit:                        0.1000000000E-97
 Overlap cut-off criterion AO matrix elements:     0.1000000000E-97
 Cut-offs for Coulomb potential and fitted density:0.1000000000E-97
 Cut-off criterion for Coulomb multipole terms:    0.1000000000E-97
 Progressive Convergence parameter:                 0.000000000    
1
 ***************************************************************************************************



                                            ***************************
                                            *  C O M P U T A T I O N  *
                                            ***************************
  

 Number of elements of the density matrix on this node (used, total):       378       378



 ===========================================
 Numerical Integration : Fuzzy Cells (Becke)
 ===========================================
  
 Becke grid quality: VERYGOOD       
  
 Lebedev angular grid order:             min:  13 max:  41
 Nr. of radial points:                   min:  76 max:  76

 Total nr. of points:         76
 Nr. of blocks:                1
 Block length:                76
 Nr. of dummy points:          0


 Test of Precision of the Numerical Integration Grid
 ===================================================

 Integral of the Total Core Density:                   1.99999999908170
 Relative Error:                                      -4.592E-10



 ========================
 Density Fitting (zlmFit)
 ========================
  
 ZlmFit Fit Quality: VERYGOOD       
  
 Max L-expansion:                        min:   0 max:   0
 Nr. of radial interpolation points:     min: 190 max: 190



 =====
 S C F  ***  ScaSCF  ***
 =====
  

 CYCLE    1
 SCF Error: norm([F,P])=      0.000000000000, max([F,P])=      0.000000000000
 orbitals (Q,E):
 ---------------
 S :1...5            ( 2.00   -23.0992)  ( 2.00    -9.8031)  ( 0.00    -5.2886)  ( 0.00    -3.1440)
                     ( 0.00    -1.2993)
 P :1...5            ( 6.00   -22.3278)  ( 3.00    -9.2322)  ( 0.00    -4.8937)  ( 0.00    -3.0142)
                     ( 0.00    -1.9614)
 D :1...1            ( 0.00    -6.4318)

 CYCLE    2
  SDIIS (wt  0.000):  1.0000  0.0000
 A-DIIS (wt  1.000):  0.1145  0.8855
  DIIS coefficients:  0.1145  0.8855
 SCF Error: norm([F,P])=     18.574199763001, max([F,P])=      5.729460424591
 orbitals (Q,E):
 ---------------
 S :1...3            ( 2.00    -4.5689)  ( 2.00    -0.5693)  ( 0.00    -0.0589)
 P :1...3            ( 6.00    -2.5820)  ( 3.00    -0.3376)  ( 0.00    -0.0879)
 D :1...1            ( 0.00     0.3219)

 CYCLE    3
  SDIIS (wt  0.000):  0.2387  0.7613
 A-DIIS (wt  1.000):  0.0000  1.0000
  DIIS coefficients:  0.0000  1.0000
 SCF Error: norm([F,P])=      7.892246338364, max([F,P])=      2.592954182835
 orbitals (Q,E):
 ---------------
 S :1...3            ( 2.00    -8.2146)  ( 2.00    -0.9843)  ( 0.00    -0.0433)
 P :1...3            ( 6.00    -6.5635)  ( 3.00    -0.6019)  ( 0.00    -0.0049)
 D :1...1            ( 0.00    -0.0107)

 CYCLE    4
  SDIIS (wt  0.000): -0.0871  0.2952  0.7919
 A-DIIS (wt  1.000):  0.0000  0.1757  0.8243
  DIIS coefficients:  0.0000  0.1757  0.8243
 SCF Error: norm([F,P])=      4.387176641077, max([F,P])=      1.761626650861
 orbitals (Q,E):
 ---------------
 S :1...3            ( 2.00    -5.8126)  ( 2.00    -0.3504)  ( 0.00     0.1791)
 P :1...3            ( 6.00    -3.9508)  ( 3.00    -0.0835)  ( 0.00     0.1310)
 D :1...1            ( 0.00     0.5508)

 CYCLE    5
  SDIIS (wt  0.000): -0.0109 -0.0602  0.1941  0.8770
 A-DIIS (wt  1.000):  0.0000  0.0000  0.0000  1.0000
  DIIS coefficients:  0.0000  0.0000  0.0000  1.0000
 SCF Error: norm([F,P])=      1.324345584458, max([F,P])=      0.466956153840
 orbitals (Q,E):
 ---------------
 S :1...3            ( 2.00    -6.8907)  ( 2.00    -0.7073)  ( 0.00     0.0342)
 P :1...3            ( 6.00    -5.0922)  ( 3.00    -0.3650)  ( 0.00     0.0330)
 D :1...1            ( 0.00     0.1959)

 CYCLE    6
  SDIIS (wt  0.000):  0.0000 -0.0289 -0.0346  0.4584  0.6050
 A-DIIS (wt  1.000):  0.0000  0.0000  0.0000  0.3111  0.6889
  DIIS coefficients:  0.0000  0.0000  0.0000  0.3111  0.6889
 SCF Error: norm([F,P])=      0.894656609953, max([F,P])=      0.328552344502
 orbitals (Q,E):
 ---------------
 S :1...3            ( 2.00    -6.3109)  ( 2.00    -0.4896)  ( 0.00     0.1210)
 P :1...3            ( 6.00    -4.4823)  ( 3.00    -0.1842)  ( 0.00     0.0870)
 D :1...1            ( 0.00     0.4072)

 CYCLE    7
  SDIIS (wt  0.437):  0.0003 -0.0004 -0.0106 -0.0415  0.1385  0.9137
 A-DIIS (wt  0.563):  0.0000  0.0000  0.0000  0.0000  0.0000  1.0000
  DIIS coefficients:  0.0001 -0.0002 -0.0046 -0.0181  0.0605  0.9623
 SCF Error: norm([F,P])=      0.152753231532, max([F,P])=      0.056768903175
 orbitals (Q,E):
 ---------------
 S :1...3            ( 2.00    -6.4268)  ( 2.00    -0.5264)  ( 0.00     0.1084)
 P :1...3            ( 6.00    -4.6039)  ( 3.00    -0.2126)  ( 0.00     0.0772)
 D :1...1            ( 0.00     0.3702)

 CYCLE    8
  SDIIS (wt  0.777): -0.0000 -0.0007  0.0025  0.0136 -0.0400  0.1180  0.9067
 A-DIIS (wt  0.223):  0.0000  0.0000  0.0000  0.0000  0.0000  0.0410  0.9590
  DIIS coefficients: -0.0000 -0.0005  0.0019  0.0105 -0.0311  0.1008  0.9184
 SCF Error: norm([F,P])=      0.062117061218, max([F,P])=      0.023065151090
 orbitals (Q,E):
 ---------------
 S :1...3            ( 2.00    -6.3871)  ( 2.00    -0.5116)  ( 0.00     0.1144)
 P :1...3            ( 6.00    -4.5623)  ( 3.00    -0.2008)  ( 0.00     0.0809)
 D :1...1            ( 0.00     0.3849)

 CYCLE    9
  SDIIS (wt  0.976):  0.0000  0.0000 -0.0001 -0.0000 -0.0006  0.0067  0.1535  0.8406
 A-DIIS (wt  0.024):  0.0000  0.0000  0.0000  0.0000  0.0000  0.0000  0.0000  1.0000
  DIIS coefficients:  0.0000  0.0000 -0.0001 -0.0000 -0.0006  0.0065  0.1498  0.8445
 SCF Error: norm([F,P])=      0.008957667695, max([F,P])=      0.003406470825
 orbitals (Q,E):
 ---------------
 S :1...3            ( 2.00    -6.3923)  ( 2.00    -0.5136)  ( 0.00     0.1136)
 P :1...3            ( 6.00    -4.5677)  ( 3.00    -0.2024)  ( 0.00     0.0804)
 D :1...1            ( 0.00     0.3830)

 CYCLE   10
  SDIIS (wt  1.000): -0.0000  0.0000 -0.0000 -0.0000  0.0000  0.0002  0.0031  0.0372  0.9595
  DIIS coefficients: -0.0000  0.0000 -0.0000 -0.0000  0.0000  0.0002  0.0031  0.0372  0.9595
 SCF Error: norm([F,P])=      0.000163653333, max([F,P])=      0.000063717608
 orbitals (Q,E):
 ---------------
 S :1...3            ( 2.00    -6.3922)  ( 2.00    -0.5136)  ( 0.00     0.1136)
 P :1...3            ( 6.00    -4.5676)  ( 3.00    -0.2024)  ( 0.00     0.0804)
 D :1...1            ( 0.00     0.3830)

 CYCLE   11
  SDIIS (wt  1.000):  0.0000  0.0000 -0.0000 -0.0002 -0.0016 -0.0226  1.0244
  DIIS coefficients:  0.0000  0.0000 -0.0000 -0.0002 -0.0016 -0.0226  1.0244
 SCF Error: norm([F,P])=      0.000000175567, max([F,P])=      0.000000090743
 orbitals (Q,E):
 ---------------
 S :1...3            ( 2.00    -6.3922)  ( 2.00    -0.5136)  ( 0.00     0.1136)
 P :1...3            ( 6.00    -4.5676)  ( 3.00    -0.2024)  ( 0.00     0.0804)
 D :1...1            ( 0.00     0.3830)

 CYCLE   12
  SDIIS (wt  1.000): -0.0000 -0.0000 -0.0005 -0.0247  1.0252
  DIIS coefficients: -0.0000 -0.0000 -0.0005 -0.0247  1.0252
 SCF Error: norm([F,P])=      0.000000002285, max([F,P])=      0.000000001028
 orbitals (Q,E):
 ---------------
 S :1...3            ( 2.00    -6.3922)  ( 2.00    -0.5136)  ( 0.00     0.1136)
 P :1...3            ( 6.00    -4.5676)  ( 3.00    -0.2024)  ( 0.00     0.0804)
 D :1...1            ( 0.00     0.3830)

 SCF CONVERGED

 CYCLE   13
1
 ***************************************************************************************************



                                                *******************
                                                *  R E S U L T S  *
                                                *******************
  
 *** Using FIT density in Focky
  SDIIS (wt  1.000):  0.0000  0.0017  0.0326  0.9657
  DIIS coefficients:  0.0000  0.0017  0.0326  0.9657
 SCF Error: norm([F,P])=      0.000000000342, max([F,P])=      0.000000000172

 Scaled ZORA Orbital Energies, per Irrep and Spin:
 =================================================
                        Occup              E (au)              E (eV)       Diff (eV) with prev. cycle
                        -----      --------------------        ------       --------------------------
 S
               1        2.000     -0.63922369009056E+01      -173.942               8.75E-09
               2        2.000     -0.51357095789531E+00       -13.975               6.90E-09
               3        0.000      0.11360419341918E+00         3.091
               4        0.000      0.13218598554508E+01        35.970
               5        0.000      0.10430275582036E+02       283.822
 P
               1        6.000     -0.45676340295409E+01      -124.292               8.74E-09
               2        3.000     -0.20235270966723E+00        -5.506               5.88E-09
               3        0.000      0.80400995303665E-01         2.188
               4        0.000      0.71612464912880E+00        19.487
               5        0.000      0.95392466931961E+01       259.576
 D
               1        0.000      0.38299165710671E+00        10.422


 Partially Occupied:
               2 P                -0.20235270966723E+00
  
 HOMO :        2 S                -0.51357095789531E+00
 LUMO :        3 P                 0.80400995303665E-01
  


 Orbital Energies, all Irreps
 ========================================

 Irrep        no.  (spin)   Occup              E (au)                E (eV)
 ---------------------------------------------------------------------------
 S             1             2.00       -0.63922369009056E+01      -173.9416
 P             1             6.00       -0.45676340295409E+01      -124.2916
 S             2             2.00       -0.51357095789531E+00       -13.9750
 P             2             3.00       -0.20235270966723E+00        -5.5063
 P             3             0.00        0.80400995303665E-01         2.1878
 S             3             0.00        0.11360419341918E+00         3.0913
 D             1             0.00        0.38299165710671E+00        10.4217
 P             4             0.00        0.71612464912880E+00        19.4867
 S             4             0.00        0.13218598554508E+01        35.9696
 P             5             0.00        0.95392466931961E+01       259.5761
 S             5             0.00        0.10430275582036E+02       283.8222


 Scaled ZORA Orbital Energies of the Core Orbitals:
 ==================================================

 (Note that the atoms are grouped by atomtype, see the labels, and may hence NOT be in input order)

 AtomType  Orbital  Atom                   E (au)                        E (eV)
 --------  -------  ----           --------------------        ----------------
 P           1S        1          -0.76588588395026E+02               -2084.082



 =======================================
 M U L L I K E N   P O P U L A T I O N S
 =======================================
  
 The survey below gives for each atom:
 a) the total charge (Z minus electrons)
 b) the net spin polarization (nr of electrons spin-A minus spin-B)
 c) for each spin the atomic electron valence density (integrated) per L-value.

 Atom              Charge    Spin density          S         P         D         F
 ----              ------    ------------       ------    ------    ------    ------
 1 P              -0.0000                       4.0000    9.0000    0.0000    0.0000

 Populations of individual BAS functions
 ----------------------------------------
 1 P           -0.0481  1.4990  0.5077  0.7973  0.7973  0.7973  1.2052  1.2052  1.2052  0.3372
                1.0986  0.6057  0.1369  0.1369  0.1369  0.4144  0.4144  0.4144  0.4462  0.4462
                0.4462  0.0000  0.0000  0.0000  0.0000  0.0000  0.0000

 Gross Charges per Atom (Z minus electrons)
 ==========================================
            -0.0000
 Net Total: -0.00000000



 =======================================================================
 Electrostatic potential at the Nuclei due to electrons and other nuclei
 =======================================================================
  
         Atom                  Potential
         ----                  ---------
     1)   P                  54.30955117
 
 
 ========================
 No memory problems found
 ========================
 
 Maximum number of active allocate calls:         389
 
 *******************************************************************************

                             A D F   E X I T
 NORMAL TERMINATION



 =================
 Timing Statistics
 =================
  
 Total Used :                     CPU=        0.53      System=        0.03     Elapsed=        0.61

 Calls  Section                     ( Mean, Percentage )
 ---------------------------------------------------------------------------------------------------
     3  ><      ................      0.00    0.00             0.00    0.00             0.00    0.70
     1  INIT    ................      0.06   12.03             0.01   28.57             0.09   14.20
     1  GEOMET  ................      0.01    2.26             0.00   14.29             0.02    3.81
     1  INPUTA  ................      0.00    0.75             0.00    0.00             0.00    0.54
     1  MAINSY  ................      0.01    1.50             0.00   14.29             0.01    2.23
     1  SYMFIT  ................      0.00    0.00             0.00    0.00             0.00    0.26
     1  CORORT  ................      0.00    0.00             0.00    0.00             0.00    0.23
     1  SYMORB  ................      0.00    0.75             0.00    0.00             0.00    0.14
     1  CLSMAT  ................      0.00    0.75             0.00    0.00             0.01    0.86
     1  ORTHON  ................      0.00    0.75             0.00    0.00             0.01    0.89
     1  GENPT   ................      0.01    2.26             0.00   14.29             0.02    2.72
     1  PTBAS   ................      0.00    0.75             0.00    0.00             0.01    0.83
    13  FOCKY   ................      0.03   64.66             0.00   14.29             0.03   58.49
    13  FOCKTR  ................      0.00    1.50             0.00    0.00             0.00    1.28
    13  SDIIS   ................      0.00    4.51             0.00   14.29             0.00    5.81
     1  COREPS  ................      0.02    4.51             0.00    0.00             0.02    3.68
     1  POPAN   ................      0.00    0.75             0.00    0.00             0.00    0.79
     1  DEBYE   ................      0.00    0.00             0.00    0.00             0.00    0.31
     1  EXIT PROCEDURE .........      0.01    2.26             0.00    0.00             0.01    2.23


 Currently Open Files (EXIT00)
 ====================

 Unit    Access Format  Status   Type       Ident (file)
 -------------------------------------------------------
   3      SEQ    FORM   TRANSP  NORMAL      LOGFILE
                                          ( logfile )

 ***************************************************************************************************
 (LOGFILE)
 <Feb10-2023> <06:51:51>  DIRAC 2019  RunTime: Feb10-2023 06:51:51  Nodes: 1  Procs: 1
 <Feb10-2023> <06:51:52>  NORMAL TERMINATION
 <Feb10-2023> <06:51:52>  END
 <Feb10-2023> <06:51:52>  ADF 2019  RunTime: Feb10-2023 06:51:52  Nodes: 1  Procs: 1
 <Feb10-2023> <06:51:52>  Phosphorus (TZP, 1s frozen)
 <Feb10-2023> <06:51:52>  RunType   : CREATE
 <Feb10-2023> <06:51:52>  Net Charge: 0 (Nuclei minus Electrons)
 <Feb10-2023> <06:51:52>  Symmetry  : ATOM
  Coordinates
    Atom         X           Y           Z   (Angstrom)
    1.P         0.000000    0.000000    0.000000
 <Feb10-2023> <06:51:52>  >>>> CORORT
 <Feb10-2023> <06:51:52>  >>>> CLSMAT
 <Feb10-2023> <06:51:52>  >>>> ORTHON
 <Feb10-2023> <06:51:52>  >>>> GENPT
 <Feb10-2023> <06:51:52>  Block Length=  76
 <Feb10-2023> <06:51:52>  >>>> PTBAS
 <Feb10-2023> <06:51:52>  >>>> CYCLE
 <Feb10-2023> <06:51:52>              |Error|         MaxErr       Wt(A-DIIS)
 <Feb10-2023> <06:51:52>      1      0.00000000      0.00000000
 <Feb10-2023> <06:51:52>      2     18.57419976      5.72946042    100.0
 <Feb10-2023> <06:51:52>      3      7.89224634      2.59295418    100.0
 <Feb10-2023> <06:51:52>      4      4.38717664      1.76162665    100.0
 <Feb10-2023> <06:51:52>      5      1.32434558      0.46695615    100.0
 <Feb10-2023> <06:51:52>      6      0.89465661      0.32855234    100.0
 <Feb10-2023> <06:51:52>      7      0.15275323      0.05676890     56.3
 <Feb10-2023> <06:51:52>      8      0.06211706      0.02306515     22.3
 <Feb10-2023> <06:51:52>      9      0.00895767      0.00340647      2.4
 <Feb10-2023> <06:51:52>     10      0.00016365      0.00006372      0.0
 <Feb10-2023> <06:51:52>     11      0.00000018      0.00000009      0.0
 <Feb10-2023> <06:51:52>     12      0.00000000      0.00000000      0.0
 <Feb10-2023> <06:51:52>  SCF converged
 <Feb10-2023> <06:51:52>     13      0.00000000      0.00000000      0.0
 <Feb10-2023> <06:51:52>  >>>> POPAN
 <Feb10-2023> <06:51:52>  >>>> DEBYE
 <Feb10-2023> <06:51:52>  NORMAL TERMINATION
 <Feb10-2023> <06:51:52>  END

 *******************************************************************************
 *                                                                             *
 *  -------------------------------------                                      *
 *   Amsterdam Density Functional  (ADF)         2019                          *
 *  -------------------------------------                                      *
 *                                               r74351 2019-04-25             *
 *                                                                             *
 *                                                                             *
 *                            =====================                            *
 *                            |                   |                            *
 *                            |     D I R A C     |                            *
 *                            |                   |                            *
 *                            =====================                            *
 *                                                                             *
 *                                                                             *
 *   Online information and documentation:  https://www.scm.com/support/       *
 *   E-mail:  support@scm.com   info@scm.com                                   *
 *                                                                             *
 *   Scientific publications using ADF results must be properly referenced     *
 *   See the User Manuals (or the web site) for recommended citations          *
 *   The terms and conditions of the End User License Agreement apply to       *
 *   the use of ADF, https://www.scm.com/license-terms/                        *
 *                                                                             *
 **********************  x86_64_linux_intel / intelmpi  ************************
 
 Licensed to: Dr. Carles Bo / Institute of Chemical Research of Catalonia ( (ICIQ) / Tarragona / Spain 2022-11-28 14:37:29
 SCM User ID: u7609
  
 DIRAC 2019  RunTime: Feb10-2023 06:51:52  Nodes: 1  Procs: 1

 Temporary files are created in /scratch/kid_0.1728692676

1
 MOLYBDENUM ATOM 3d CORE RELATIVISTIC, Point Nuc, A and c fro
 N J RN H ZN XION ANUC CLIGHT
 5000   15100.00000000197.36710137 42.00000000  0.00000000   97.905406  0.1370360E+03
  PH   PHI     EPS        DEL        DELRVR
  0.30  0.30     2500.00  0.00001000  0.00001000
 IDIRC  NC1  NDEBU NPRIN  IPUN IRCOR IWCOR
   1   300     0     0     0     0     9
   XALPHA      XLATTER      RNUC
  0.70000000  0.00000000  0.00000000 Point Charge
   XN   XL   XJ      XE          XZ      XDELL
  1.0  0.0  0.5   -1500.000       2.000     0.00000
  2.0  0.0  0.5    -325.000       2.000     0.00000
  2.0  1.0  0.5    -325.000       2.000     0.00000
  2.0  1.0  1.5    -325.000       4.000     0.00000
  3.0  0.0  0.5     -70.000       2.000     0.00000
  3.0  1.0  0.5     -70.000       2.000     0.00000
  3.0  1.0  1.5     -70.000       4.000     0.00000
  3.0  2.0  1.5     -60.000       4.000     0.00000
  3.0  2.0  2.5     -60.000       6.000     0.00000
  4.0  0.0  0.5     -10.000       2.000     0.00000
  4.0  1.0  0.5     -10.000       2.000     0.00000
  4.0  1.0  1.5     -10.000       4.000     0.00000
  4.0  2.0  1.5      -1.000       4.000     0.00000
  4.0  2.0  2.5      -1.000       1.000     0.00000
  5.0  0.0  0.5      -0.500       1.000     0.00000
 ICORP=  0  NPCL=  0  DEMP=0.00  PEPS=0.000000
 R(1)=  0.1000000E-08 D=  0.1005080E+01 RNUC=  0.0000000E+00
 converged at cycle   41  DENSITY AVERAGING    0.2400
  MAXIMUM ERROR IN R.V(R) IS   0.93203452E-05
 Q,EY,EV,EZ,ESUM,ETOT,RHO  0.420000E+02 -0.161898E+03 -0.662509E+04 -0.978397E+04 -0.242700E+04 -0.404691E+04  0.342495E-11


 DIRAC CALCULATION
1                    MOLYBDENUM ATOM 3d CORE RELATIVISTIC, Point Nuc, A and c from libtc


 EXCHANGE COEFFICIENT=  0.7000000           TAIL CORRECTION=  0.           NUCLEAR RADIUS=  0.000E+00
0                       ORBITAL    N    L    J     ELECTRONS     EIGENVALUE                DELTA OF EIGENV.

                          1S1/2  1.0  0.0  0.5     2.000       -0.7276812E+03                 0.2822496E-04
                          2S1/2  2.0  0.0  0.5     2.000       -0.1028194E+03                 0.1725465E-04
                          2P1/2  2.0  1.0  0.5     2.000       -0.9468016E+02                 0.1864325E-04
                          2P3/2  2.0  1.0  1.5     4.000       -0.9076266E+02                 0.1832345E-04
                          3S1/2  3.0  0.0  0.5     2.000       -0.1747094E+02                 0.5979346E-05
                          3P1/2  3.0  1.0  0.5     2.000       -0.1436574E+02                 0.6275079E-05
                          3P3/2  3.0  1.0  1.5     4.000       -0.1371946E+02                 0.5984426E-05
                          3D3/2  3.0  2.0  1.5     4.000       -0.8203697E+01                 0.6709395E-05
                          3D5/2  3.0  2.0  2.5     6.000       -0.8081013E+01                 0.6610438E-05
                          4S1/2  4.0  0.0  0.5     2.000       -0.2338238E+01                 0.2446887E-06
                          4P1/2  4.0  1.0  0.5     2.000       -0.1452045E+01                 0.2971982E-06
                          4P3/2  4.0  1.0  1.5     4.000       -0.1358936E+01                 0.3186552E-06
                          4D3/2  4.0  2.0  1.5     4.000       -0.1184046E+00                 0.3378248E-06
                          4D5/2  4.0  2.0  2.5     1.000       -0.1108976E+00                 0.3342679E-06
                          5S1/2  5.0  0.0  0.5     1.000       -0.1320069E+00                 0.9757102E-07


                                        NUCLEAR CHARGE=   42.000000
                            INTEGRAL OF CHARGE DENSITY=   42.000000
                           SUM OF THE ORBITAL ENERGIES=  -2426.9970
                                          TOTAL ENERGY=  -4046.9128
                                        KINETIC ENERGY=   4198.0886
                             NUCLEAR ATTRACTION ENERGY=  -9783.9685
                             ELECTRON REPULSION ENERGY=   1660.3903
                                       EXCHANGE ENERGY=   -121.4232

 *******************************************************************************

                             D I R A C   E X I T
 NORMAL TERMINATION



 =================
 Timing Statistics
 =================
  
 Total Used :                     CPU=        0.36      System=        0.01     Elapsed=        0.37

 Calls  Section                     ( Mean, Percentage )
 ---------------------------------------------------------------------------------------------------
     2  ><      ................      0.00    0.00             0.00    0.00             0.00    0.00
     1  EXIT PROCEDURE .........      0.36  100.00             0.01  100.00             0.37  100.00


 Currently Open Files (EXIT00)
 ====================

 Unit    Access Format  Status   Type       Ident (file)
 -------------------------------------------------------
   3      SEQ    FORM   TRANSP  NORMAL      LOGFILE
                                          ( logfile )
 
Create Mo   file=TZP-Mo.3d
XC
  GGA PBE
End
relativistic ZORA
Corepotentials t12.rel
End

 *******************************************************************************
 *                                                                             *
 *  -------------------------------------                                      *
 *   Amsterdam Density Functional  (ADF)         2019                          *
 *  -------------------------------------                                      *
 *                                               r74351 2019-04-25             *
 *                                                                             *
 *                                                                             *
 *                              =================                              *
 *                              |               |                              *
 *                              |     A D F     |                              *
 *                              |               |                              *
 *                              =================                              *
 *                                                                             *
 *                                                                             *
 *   Online information and documentation:  https://www.scm.com/support/       *
 *   E-mail:  support@scm.com   info@scm.com                                   *
 *                                                                             *
 *   Scientific publications using ADF results must be properly referenced     *
 *   See the User Manuals (or the web site) for recommended citations          *
 *   The terms and conditions of the End User License Agreement apply to       *
 *   the use of ADF, https://www.scm.com/license-terms/                        *
 *                                                                             *
 **********************  x86_64_linux_intel / intelmpi  ************************
 
 Licensed to: Dr. Carles Bo / Institute of Chemical Research of Catalonia ( (ICIQ) / Tarragona / Spain 2022-11-28 14:37:29
 SCM User ID: u7609
  
 ADF 2019  RunTime: Feb10-2023 06:51:53  Nodes: 1  Procs: 1

 Temporary files are created in /scratch/kid_0.1567029600

 Molybdenum (TZP, 3d frozen)



 ===========================
 A T T A C H E D   F I L E S
 ===========================
  
 CREATE - Data File:    TZP-Mo.3d
                        Molybdenum (TZP, 3d frozen)
 Core Potentials:
         file : t12.rel



 ===============================
 M O D E L   P A R A M E T E R S
 ===============================
  
 DENSITY FUNCTIONAL POTENTIAL (scf)
    LDA:                               PW92                                    == Not Default ==
    Gradient Corrections:              PBEc PBEx                               == Not Default ==

 SPIN  (restricted / unrestr.)
    Molecule:                          Restricted                               

 OTHER ASPECTS
    Relativistic Corrections:          scalar (ZORA,MAPA)                      == Not Default ==

    Nuclear Charge Density Model:      Point Charge Nuclei                      
    Core Treatment:                    Frozen Orbital(s)                        

    Hyperfine or Zeeman Interaction:   ---                                      



 =====================================
 S Y M M E T R Y ,   E L E C T R O N S
 =====================================
  
 Symmetry: ATOM

 Irreducible Representations, including subspecies
 -------------------------------------------------
 S
 P:x  P:y  P:z
 D:z2  D:x2-y2  D:xy  D:xz  D:yz
 F:z3  F:z  F:xyz  F:z2x  F:z2y  F:x  F:y


 Configuration of Valence Electrons
 ==================================

          Occupation Numbers
          -------------------------------------------------
 S        2 1
 P        6
 D        5
 F        0
          -------------------------------------------------

 Total:   14

 Net Charge: 0 (Nuclei minus Electrons)

 Preset values for MO occupations will be applied through SCF cycle no. 1000000
 Thereafter, the program will assign electrons to MOs that are spatially
 similar to the occupied MOs in a "reference" cycle ("KeepOrbitals").
 The reference cycle is always the PREVIOUS cycle: it will evolve with
 the SCF procedure.



 ================================
 (Slater-type)  F U N C T I O N S  ***  (Basis and Fit)  ***
 ================================
  

 Atom Type    1  (Mo)
 ==============

 Valence Basis Sets:  18
 -----------------------
   1 S   30.500000
   2 S   17.750000
   3 S    8.350000
   2 P   18.600000
   3 P    8.700000
   3 D   10.050000
   4 S    5.100000
   4 S    3.300000
   5 S    2.150000
   5 S    1.350000
   5 S    0.870000
   4 P    4.950000
   4 P    3.300000
   4 P    2.300000
   4 D    3.500000
   4 D    1.850000
   4 D    0.970000
   5 P    1.350000

 Frozen Core Shells
 ------------------
    S:  3
    P:  2
    D:  1


 BAS: List of all Elementary Cartesian Basis Functions
 =====================================================

 The numbering in the list below (to the right of the function characteristics) is referred
 to in print-outs of MO eigenvectors and Mulliken populations in the BAS representation
 (as contrasted to the SFO representation).

 Notes:
 1. The functions are characterized by a polynomial prefactor (powers of x,y,z and r) and
    an exponential decay factor alpha.
 2. Since the basis sets are specific for an atom TYPE, the individual functions occur on
    all atoms of that type.
 3. The word 'Core' in the left margin signals that it is a Core Function (CF) : not a
    degree of freedom in the valence set, but only used to ensure orthogonalization of
    the other valence basis functions on the frozen Core Orbitals.


 (power of) X  Y  Z  R     Alpha  on Atom
            ==========     =====     ==========

 Mo                                   1
                                  ---------------------------------------------------------------------------
    Core    0  0  0  0    30.500      1
    Core    0  0  0  1    17.750      2
    Core    0  0  0  2     8.350      3
    Core    1  0  0  0    18.600      4
    Core    0  1  0  0    18.600      5
    Core    0  0  1  0    18.600      6
    Core    1  0  0  1     8.700      7
    Core    0  1  0  1     8.700      8
    Core    0  0  1  1     8.700      9
    Core    2  0  0  0    10.050     10
    Core    1  1  0  0    10.050     11
    Core    1  0  1  0    10.050     12
    Core    0  2  0  0    10.050     13
    Core    0  1  1  0    10.050     14
    Core    0  0  2  0    10.050     15
            0  0  0  3     5.100     16
            0  0  0  3     3.300     17
            0  0  0  4     2.150     18
            0  0  0  4     1.350     19
            0  0  0  4     0.870     20
            1  0  0  2     4.950     21
            0  1  0  2     4.950     22
            0  0  1  2     4.950     23
            1  0  0  2     3.300     24
            0  1  0  2     3.300     25
            0  0  1  2     3.300     26
            1  0  0  2     2.300     27
            0  1  0  2     2.300     28
            0  0  1  2     2.300     29
            2  0  0  1     3.500     30
            1  1  0  1     3.500     31
            1  0  1  1     3.500     32
            0  2  0  1     3.500     33
            0  1  1  1     3.500     34
            0  0  2  1     3.500     35
            2  0  0  1     1.850     36
            1  1  0  1     1.850     37
            1  0  1  1     1.850     38
            0  2  0  1     1.850     39
            0  1  1  1     1.850     40
            0  0  2  1     1.850     41
            2  0  0  1     0.970     42
            1  1  0  1     0.970     43
            1  0  1  1     0.970     44
            0  2  0  1     0.970     45
            0  1  1  1     0.970     46
            0  0  2  1     0.970     47
            1  0  0  3     1.350     48
            0  1  0  3     1.350     49
            0  0  1  3     1.350     50

 Total number of charge fitting functions (nprimf)       230
 Total number of Cartesian basis functions (naos)         50
 Total number of Cartesian core functions  (ncos)         15



 BAS: List of all Elementary Cartesian Basis Functions
 =====================================================

 The numbering in the list below (to the right of the function characteristics) is referred
 to in print-outs of MO eigenvectors and Mulliken populations in the BAS representation
 (as contrasted to the SFO representation).

 Notes:
 1. The functions are characterized by a polynomial prefactor (powers of x,y,z and r) and
    an exponential decay factor alpha.
 2. Since the basis sets are specific for an atom TYPE, the individual functions occur on
    all atoms of that type.
 3. The word 'Core' in the left margin signals that it is a Core Function (CF) : not a
    degree of freedom in the valence set, but only used to ensure orthogonalization of
    the other valence basis functions on the frozen Core Orbitals.


 (power of) X  Y  Z  R     Alpha  on Atom
            ==========     =====     ==========

 Mo                                   1
                                  ---------------------------------------------------------------------------
    Core    0  0  0  0    30.500      1
    Core    0  0  0  1    17.750      2
    Core    0  0  0  2     8.350      3
    Core    1  0  0  0    18.600      4
    Core    0  1  0  0    18.600      5
    Core    0  0  1  0    18.600      6
    Core    1  0  0  1     8.700      7
    Core    0  1  0  1     8.700      8
    Core    0  0  1  1     8.700      9
    Core    2  0  0  0    10.050     10
    Core    1  1  0  0    10.050     11
    Core    1  0  1  0    10.050     12
    Core    0  2  0  0    10.050     13
    Core    0  1  1  0    10.050     14
    Core    0  0  2  0    10.050     15
            0  0  0  3     5.100     16
            0  0  0  3     3.300     17
            0  0  0  4     2.150     18
            0  0  0  4     1.350     19
            0  0  0  4     0.870     20
            1  0  0  2     4.950     21
            0  1  0  2     4.950     22
            0  0  1  2     4.950     23
            1  0  0  2     3.300     24
            0  1  0  2     3.300     25
            0  0  1  2     3.300     26
            1  0  0  2     2.300     27
            0  1  0  2     2.300     28
            0  0  1  2     2.300     29
            2  0  0  1     3.500     30
            1  1  0  1     3.500     31
            1  0  1  1     3.500     32
            0  2  0  1     3.500     33
            0  1  1  1     3.500     34
            0  0  2  1     3.500     35
            2  0  0  1     1.850     36
            1  1  0  1     1.850     37
            1  0  1  1     1.850     38
            0  2  0  1     1.850     39
            0  1  1  1     1.850     40
            0  0  2  1     1.850     41
            2  0  0  1     0.970     42
            1  1  0  1     0.970     43
            1  0  1  1     0.970     44
            0  2  0  1     0.970     45
            0  1  1  1     0.970     46
            0  0  2  1     0.970     47
            1  0  0  3     1.350     48
            0  1  0  3     1.350     49
            0  0  1  3     1.350     50
1
 ***************************************************************************************************



                                              ***********************
                                              *  T E C H N I C A L  *
                                              ***********************
  



 =============================================================
 P A R A L L E L I Z A T I O N  and  V E C T O R I Z A T I O N
 =============================================================
  
 Nr of parallel processes:                                1
 Maximum vector length in NumInt loops:                 128



 =====================
 S C F   U P D A T E S
 =====================
  
 Max. nr. of cycles:                               300
 Convergence criterion:                              0.0000000100
   secondary criterion:                              0.0000000100

 Mix parameter (when DIIS does not apply):           0.2000000000
 Special mix parameter for the first cycle:          1.0000000000
 Mixed ADIIS+SDIIS will be used                  
    Max number of expansion vectors:                10
    Pure ADIIS when Max([F,P]) is above              0.1000000000
    Pure SDIIS when Max([F,P]) is below              0.0010000000
 Automatic ElectronSmearing (in case of problematic SCF convergence) disabled



 =================
 P R E C I S I O N  ***  (General: NumInt, NeglectFunctionTails, ...)  ***
 =================
  

 NumInt:           Target precision:                12.0000000000
 -------           Initial precision:               10.0000000000
                   Min. precision (optimization):   10.0000000000

 Neglect Functions:          Basis functions:        0.1000000000E-13
 ------------------          Fit functions:          0.1000000000E-13



 ===========================
 L I N E A R   S C A L I N G
 ===========================
  

 Cut-off radii density fit:                        0.1000000000E-97
 Overlap cut-off criterion AO matrix elements:     0.1000000000E-97
 Cut-offs for Coulomb potential and fitted density:0.1000000000E-97
 Cut-off criterion for Coulomb multipole terms:    0.1000000000E-97
 Progressive Convergence parameter:                 0.000000000    
1
 ***************************************************************************************************



                                            ***************************
                                            *  C O M P U T A T I O N  *
                                            ***************************
  

 Number of elements of the density matrix on this node (used, total):      1275      1275



 ===========================================
 Numerical Integration : Fuzzy Cells (Becke)
 ===========================================
  
 Becke grid quality: VERYGOOD       
  
 Lebedev angular grid order:             min:  13 max:  41
 Nr. of radial points:                   min: 106 max: 106

 Total nr. of points:        106
 Nr. of blocks:                1
 Block length:               106
 Nr. of dummy points:          0


 Test of Precision of the Numerical Integration Grid
 ===================================================

 Integral of the Total Core Density:                  28.00000000969493
 Relative Error:                                       3.462E-10



 ========================
 Density Fitting (zlmFit)
 ========================
  
 ZlmFit Fit Quality: VERYGOOD       
  
 Max L-expansion:                        min:   0 max:   0
 Nr. of radial interpolation points:     min: 230 max: 230



 =====
 S C F  ***  ScaSCF  ***
 =====
  

 CYCLE    1
 SCF Error: norm([F,P])=      0.000000000000, max([F,P])=      0.000000000000
 orbitals (Q,E):
 ---------------
 S :1...5            ( 2.00   -11.6814)  ( 1.00    -6.3532)  ( 0.00    -3.9976)  ( 0.00    -2.6589)
                     ( 0.00    -1.7000)
 P :1...4            ( 6.00   -10.5018)  ( 0.00    -5.8212)  ( 0.00    -3.6400)  ( 0.00    -2.5070)
 D :1...3            ( 5.00    -8.4786)  ( 0.00    -4.5701)  ( 0.00    -2.4939)

 CYCLE    2
  SDIIS (wt  0.000):  1.0000  0.0000
 A-DIIS (wt  1.000):  0.1286  0.8714
  DIIS coefficients:  0.1286  0.8714
 SCF Error: norm([F,P])=      7.148790686087, max([F,P])=      2.364314963741
 orbitals (Q,E):
 ---------------
 S :1...3            ( 2.00    -1.8793)  ( 1.00    -0.4080)  ( 0.00    -0.1761)
 P :1...2            ( 6.00    -1.0989)  ( 0.00    -0.2723)
 D :1...2            ( 5.00    -0.2758)  ( 0.00    -0.0263)

 CYCLE    3
  SDIIS (wt  0.000):  0.3519  0.6481
 A-DIIS (wt  1.000):  0.2376  0.7624
  DIIS coefficients:  0.2376  0.7624
 SCF Error: norm([F,P])=      4.212278243430, max([F,P])=      1.568530983970
 orbitals (Q,E):
 ---------------
 S :1...3            ( 2.00    -3.0898)  ( 1.00    -0.3551)  ( 0.00    -0.0106)
 P :1...2            ( 6.00    -2.0988)  ( 0.00    -0.1560)
 D :1...2            ( 5.00    -0.6568)  ( 0.00     0.0486)

 CYCLE    4
  SDIIS (wt  0.000): -0.0802  0.2380  0.8422
 A-DIIS (wt  1.000):  0.0000  0.2131  0.7869
  DIIS coefficients:  0.0000  0.2131  0.7869
 SCF Error: norm([F,P])=      1.823310320672, max([F,P])=      0.621470068658
 orbitals (Q,E):
 ---------------
 S :1...3            ( 2.00    -2.1329)  ( 1.00    -0.1098)  ( 0.00     0.0530)
 P :1...2            ( 6.00    -1.2112)  ( 0.00     0.0122)
 D :1...2            ( 5.00    -0.0245)  ( 0.00     0.1765)

 CYCLE    5
  SDIIS (wt  0.000): -0.0246 -0.0857  0.3373  0.7730
 A-DIIS (wt  1.000):  0.0000  0.0000  0.3000  0.7000
  DIIS coefficients:  0.0000  0.0000  0.3000  0.7000
 SCF Error: norm([F,P])=      1.058828219057, max([F,P])=      0.362553371378
 orbitals (Q,E):
 ---------------
 S :1...3            ( 2.00    -2.5065)  ( 1.00    -0.1954)  ( 0.00     0.0191)
 P :1...2            ( 6.00    -1.5530)  ( 0.00    -0.0541)
 D :1...2            ( 5.00    -0.2373)  ( 0.00     0.1039)

 CYCLE    6
  SDIIS (wt  0.000):  0.0107 -0.0168 -0.1404  0.2233  0.9231
 A-DIIS (wt  1.000):  0.0000  0.0000  0.0000  0.1685  0.8315
  DIIS coefficients:  0.0000  0.0000  0.0000  0.1685  0.8315
 SCF Error: norm([F,P])=      0.386302370665, max([F,P])=      0.125926487743
 orbitals (Q,E):
 ---------------
 S :1...3            ( 2.00    -2.2911)  ( 1.00    -0.1348)  ( 0.00     0.0380)
 P :1...2            ( 6.00    -1.3509)  ( 0.00    -0.0079)
 D :1...2            ( 5.00    -0.0948)  ( 0.00     0.1449)

 CYCLE    7
  SDIIS (wt  0.044): -0.0008  0.0043  0.0172 -0.1816  0.1952  0.9657
 A-DIIS (wt  0.956):  0.0000  0.0000  0.0000  0.0000  0.3526  0.6474
  DIIS coefficients: -0.0000  0.0002  0.0008 -0.0081  0.3456  0.6615
 SCF Error: norm([F,P])=      0.284734623559, max([F,P])=      0.095612429384
 orbitals (Q,E):
 ---------------
 S :1...3            ( 2.00    -2.3844)  ( 1.00    -0.1556)  ( 0.00     0.0295)
 P :1...2            ( 6.00    -1.4366)  ( 0.00    -0.0239)
 D :1...2            ( 5.00    -0.1494)  ( 0.00     0.1281)

 CYCLE    8
  SDIIS (wt  0.772):  0.0000  0.0002 -0.0034 -0.0193  0.0076  0.2482  0.7667
 A-DIIS (wt  0.228):  0.0000  0.0000  0.0000  0.0000  0.0000  0.0289  0.9711
  DIIS coefficients:  0.0000  0.0002 -0.0026 -0.0149  0.0058  0.1982  0.8133
 SCF Error: norm([F,P])=      0.070427042512, max([F,P])=      0.023581757016
 orbitals (Q,E):
 ---------------
 S :1...3            ( 2.00    -2.3580)  ( 1.00    -0.1494)  ( 0.00     0.0311)
 P :1...2            ( 6.00    -1.4122)  ( 0.00    -0.0192)
 D :1...2            ( 5.00    -0.1332)  ( 0.00     0.1325)

 CYCLE    9
  SDIIS (wt  0.929): -0.0000 -0.0000  0.0002  0.0020 -0.0040 -0.0349  0.1906  0.8461
 A-DIIS (wt  0.071):  0.0000  0.0000  0.0000  0.0000  0.0000  0.0000  0.1077  0.8923
  DIIS coefficients: -0.0000 -0.0000  0.0002  0.0018 -0.0037 -0.0324  0.1847  0.8494
 SCF Error: norm([F,P])=      0.024021634807, max([F,P])=      0.008070140854
 orbitals (Q,E):
 ---------------
 S :1...3            ( 2.00    -2.3650)  ( 1.00    -0.1511)  ( 0.00     0.0305)
 P :1...2            ( 6.00    -1.4187)  ( 0.00    -0.0205)
 D :1...2            ( 5.00    -0.1375)  ( 0.00     0.1313)

 CYCLE   10
  SDIIS (wt  1.000):  0.0000  0.0000 -0.0000 -0.0003  0.0006  0.0038 -0.0155  1.0114
  DIIS coefficients:  0.0000  0.0000 -0.0000 -0.0003  0.0006  0.0038 -0.0155  1.0114
 SCF Error: norm([F,P])=      0.001691537232, max([F,P])=      0.000569379855
 orbitals (Q,E):
 ---------------
 S :1...3            ( 2.00    -2.3645)  ( 1.00    -0.1510)  ( 0.00     0.0305)
 P :1...2            ( 6.00    -1.4182)  ( 0.00    -0.0204)
 D :1...2            ( 5.00    -0.1372)  ( 0.00     0.1314)

 CYCLE   11
  SDIIS (wt  1.000):  0.0000 -0.0000  0.0000  0.0002 -0.0008 -0.0102 -0.0868  1.0976
  DIIS coefficients:  0.0000 -0.0000  0.0000  0.0002 -0.0008 -0.0102 -0.0868  1.0976
 SCF Error: norm([F,P])=      0.000000816018, max([F,P])=      0.000000266639
 orbitals (Q,E):
 ---------------
 S :1...3            ( 2.00    -2.3645)  ( 1.00    -0.1510)  ( 0.00     0.0305)
 P :1...2            ( 6.00    -1.4182)  ( 0.00    -0.0204)
 D :1...2            ( 5.00    -0.1372)  ( 0.00     0.1314)

 CYCLE   12
  SDIIS (wt  1.000): -0.0000  0.0000  0.0001  0.0011  0.0118  0.9869
  DIIS coefficients: -0.0000  0.0000  0.0001  0.0011  0.0118  0.9869
 SCF Error: norm([F,P])=      0.000000024268, max([F,P])=      0.000000008564
 orbitals (Q,E):
 ---------------
 S :1...3            ( 2.00    -2.3645)  ( 1.00    -0.1510)  ( 0.00     0.0305)
 P :1...2            ( 6.00    -1.4182)  ( 0.00    -0.0204)
 D :1...2            ( 5.00    -0.1372)  ( 0.00     0.1314)

 SCF CONVERGED

 CYCLE   13
1
 ***************************************************************************************************



                                                *******************
                                                *  R E S U L T S  *
                                                *******************
  
 *** Using FIT density in Focky
  SDIIS (wt  1.000):  0.0000  0.0000 -0.0009 -0.0131  1.0139
  DIIS coefficients:  0.0000  0.0000 -0.0009 -0.0131  1.0139
 SCF Error: norm([F,P])=      0.000000001716, max([F,P])=      0.000000000646

 Scaled ZORA Orbital Energies, per Irrep and Spin:
 =================================================
                        Occup              E (au)              E (eV)       Diff (eV) with prev. cycle
                        -----      --------------------        ------       --------------------------
 S
               1        2.000     -0.23645412461087E+01       -64.342               1.08E-08
               2        1.000     -0.15095063251582E+00        -4.108               1.52E-08
               3        0.000      0.30491108737404E-01         0.830
               4        0.000      0.39955981712578E+00        10.873
               5        0.000      0.28259043504195E+01        76.897
 P
               1        6.000     -0.14182481541156E+01       -38.592               1.24E-08
               2        0.000     -0.20381990593673E-01        -0.555
               3        0.000      0.61122831684606E+00        16.632
               4        0.000      0.40294008516846E+01       109.646
 D
               1        5.000     -0.13719857998971E+00        -3.733               1.57E-08
               2        0.000      0.13138303481334E+00         3.575
               3        0.000      0.10915573963069E+01        29.703


 Partially Occupied:
               2 S                -0.15095063251582E+00
               1 D                -0.13719857998971E+00
  
 HOMO :        1 P                -0.14182481541156E+01
 LUMO :        2 P                -0.20381990593673E-01
  


 Orbital Energies, all Irreps
 ========================================

 Irrep        no.  (spin)   Occup              E (au)                E (eV)
 ---------------------------------------------------------------------------
 S             1             2.00       -0.23645412461087E+01       -64.3424
 P             1             6.00       -0.14182481541156E+01       -38.5925
 S             2             1.00       -0.15095063251582E+00        -4.1076
 D             1             5.00       -0.13719857998971E+00        -3.7334
 P             2             0.00       -0.20381990593673E-01        -0.5546
 S             3             0.00        0.30491108737404E-01         0.8297
 D             2             0.00        0.13138303481334E+00         3.5751
 S             4             0.00        0.39955981712578E+00        10.8726
 P             3             0.00        0.61122831684606E+00        16.6324
 D             3             0.00        0.10915573963069E+01        29.7028
 S             5             0.00        0.28259043504195E+01        76.8968
 P             4             0.00        0.40294008516846E+01       109.6456


 Scaled ZORA Orbital Energies of the Core Orbitals:
 ==================================================

 (Note that the atoms are grouped by atomtype, see the labels, and may hence NOT be in input order)

 AtomType  Orbital  Atom                   E (au)                        E (eV)
 --------  -------  ----           --------------------        ----------------
 Mo          1S        1          -0.72810156987753E+03              -19812.652
             2S        1          -0.10281078869890E+03               -2797.624
             3S        1          -0.17490063510859E+02                -475.929
             2P        1          -0.91890973277880E+02               -2500.481
             3P        1          -0.13936907885645E+02                -379.243
             3D        1          -0.81284558211672E+01                -221.187



 =======================================
 M U L L I K E N   P O P U L A T I O N S
 =======================================
  
 The survey below gives for each atom:
 a) the total charge (Z minus electrons)
 b) the net spin polarization (nr of electrons spin-A minus spin-B)
 c) for each spin the atomic electron valence density (integrated) per L-value.

 Atom              Charge    Spin density          S         P         D         F
 ----              ------    ------------       ------    ------    ------    ------
 1 Mo              0.0000                       3.0000    6.0000    5.0000    0.0000

 Populations of individual BAS functions
 ----------------------------------------
 1 Mo          -0.0051  0.0033 -0.0315  0.0008  0.0008  0.0008  0.0345  0.0345  0.0345  0.0153
                0.0230  0.0230  0.0153  0.0230  0.0153  1.3114  0.7310  0.3903  0.5032  0.0973
                0.7293  0.7293  0.7293  1.1024  1.1024  1.1024  0.1310  0.1310  0.1310  0.2744
                0.4116  0.4116  0.2744  0.4116  0.2744  0.3155  0.4732  0.4732  0.3155  0.4732
                0.3155  0.0615  0.0922  0.0922  0.0615  0.0922  0.0615  0.0019  0.0019  0.0019

 Gross Charges per Atom (Z minus electrons)
 ==========================================
             0.0000
 Net Total:  0.00000000



 =======================================================================
 Electrostatic potential at the Nuclei due to electrons and other nuclei
 =======================================================================
  
         Atom                  Potential
         ----                  ---------
     1)   Mo                232.78835403
 
 
 ========================
 No memory problems found
 ========================
 
 Maximum number of active allocate calls:         389
 
 *******************************************************************************

                             A D F   E X I T
 NORMAL TERMINATION



 =================
 Timing Statistics
 =================
  
 Total Used :                     CPU=        0.66      System=        0.04     Elapsed=        0.74

 Calls  Section                     ( Mean, Percentage )
 ---------------------------------------------------------------------------------------------------
     3  ><      ................      0.00    0.61             0.00    0.00             0.00    0.54
     1  INIT    ................      0.06    9.09             0.01   22.22             0.07    9.97
     1  GEOMET  ................      0.02    2.42             0.00    0.00             0.02    3.28
     1  INPUTA  ................      0.00    0.61             0.00    0.00             0.00    0.48
     1  MAINSY  ................      0.01    1.82             0.00   11.11             0.02    2.49
     1  SYMFIT  ................      0.00    0.00             0.00    0.00             0.00    0.22
     1  CORORT  ................      0.00    0.61             0.00    0.00             0.00    0.24
     1  SYMORB  ................      0.00    0.00             0.00    0.00             0.00    0.12
     1  CLSMAT  ................      0.00    0.61             0.00    0.00             0.01    0.74
     1  ORTHON  ................      0.00    0.61             0.00    0.00             0.01    0.74
     1  GENPT   ................      0.02    3.03             0.00    0.00             0.02    2.81
     1  PTBAS   ................      0.00    0.61             0.00    0.00             0.01    0.75
    13  FOCKY   ................      0.03   67.27             0.00   55.56             0.04   64.04
    13  FOCKTR  ................      0.00    1.21             0.00    0.00             0.00    1.12
    13  SDIIS   ................      0.00    4.24             0.00    0.00             0.00    4.89
     1  COREPS  ................      0.03    4.85             0.00    0.00             0.03    4.58
     1  POPAN   ................      0.01    1.21             0.00    0.00             0.00    0.66
     1  DEBYE   ................      0.00    0.00             0.00    0.00             0.00    0.27
     1  EXIT PROCEDURE .........      0.01    1.21             0.00   11.11             0.02    2.05


 Currently Open Files (EXIT00)
 ====================

 Unit    Access Format  Status   Type       Ident (file)
 -------------------------------------------------------
   3      SEQ    FORM   TRANSP  NORMAL      LOGFILE
                                          ( logfile )

 ***************************************************************************************************
 (LOGFILE)
 <Feb10-2023> <06:51:51>  DIRAC 2019  RunTime: Feb10-2023 06:51:51  Nodes: 1  Procs: 1
 <Feb10-2023> <06:51:52>  NORMAL TERMINATION
 <Feb10-2023> <06:51:52>  END
 <Feb10-2023> <06:51:52>  ADF 2019  RunTime: Feb10-2023 06:51:52  Nodes: 1  Procs: 1
 <Feb10-2023> <06:51:52>  Phosphorus (TZP, 1s frozen)
 <Feb10-2023> <06:51:52>  RunType   : CREATE
 <Feb10-2023> <06:51:52>  Net Charge: 0 (Nuclei minus Electrons)
 <Feb10-2023> <06:51:52>  Symmetry  : ATOM
  Coordinates
    Atom         X           Y           Z   (Angstrom)
    1.P         0.000000    0.000000    0.000000
 <Feb10-2023> <06:51:52>  >>>> CORORT
 <Feb10-2023> <06:51:52>  >>>> CLSMAT
 <Feb10-2023> <06:51:52>  >>>> ORTHON
 <Feb10-2023> <06:51:52>  >>>> GENPT
 <Feb10-2023> <06:51:52>  Block Length=  76
 <Feb10-2023> <06:51:52>  >>>> PTBAS
 <Feb10-2023> <06:51:52>  >>>> CYCLE
 <Feb10-2023> <06:51:52>              |Error|         MaxErr       Wt(A-DIIS)
 <Feb10-2023> <06:51:52>      1      0.00000000      0.00000000
 <Feb10-2023> <06:51:52>      2     18.57419976      5.72946042    100.0
 <Feb10-2023> <06:51:52>      3      7.89224634      2.59295418    100.0
 <Feb10-2023> <06:51:52>      4      4.38717664      1.76162665    100.0
 <Feb10-2023> <06:51:52>      5      1.32434558      0.46695615    100.0
 <Feb10-2023> <06:51:52>      6      0.89465661      0.32855234    100.0
 <Feb10-2023> <06:51:52>      7      0.15275323      0.05676890     56.3
 <Feb10-2023> <06:51:52>      8      0.06211706      0.02306515     22.3
 <Feb10-2023> <06:51:52>      9      0.00895767      0.00340647      2.4
 <Feb10-2023> <06:51:52>     10      0.00016365      0.00006372      0.0
 <Feb10-2023> <06:51:52>     11      0.00000018      0.00000009      0.0
 <Feb10-2023> <06:51:52>     12      0.00000000      0.00000000      0.0
 <Feb10-2023> <06:51:52>  SCF converged
 <Feb10-2023> <06:51:52>     13      0.00000000      0.00000000      0.0
 <Feb10-2023> <06:51:52>  >>>> POPAN
 <Feb10-2023> <06:51:52>  >>>> DEBYE
 <Feb10-2023> <06:51:52>  NORMAL TERMINATION
 <Feb10-2023> <06:51:52>  END
 <Feb10-2023> <06:51:52>  DIRAC 2019  RunTime: Feb10-2023 06:51:52  Nodes: 1  Procs: 1
 <Feb10-2023> <06:51:53>  NORMAL TERMINATION
 <Feb10-2023> <06:51:53>  END
 <Feb10-2023> <06:51:53>  ADF 2019  RunTime: Feb10-2023 06:51:53  Nodes: 1  Procs: 1
 <Feb10-2023> <06:51:53>  Molybdenum (TZP, 3d frozen)
 <Feb10-2023> <06:51:53>  RunType   : CREATE
 <Feb10-2023> <06:51:53>  Net Charge: 0 (Nuclei minus Electrons)
 <Feb10-2023> <06:51:53>  Symmetry  : ATOM
  Coordinates
    Atom         X           Y           Z   (Angstrom)
    1.Mo        0.000000    0.000000    0.000000
 <Feb10-2023> <06:51:53>  >>>> CORORT
 <Feb10-2023> <06:51:53>  >>>> CLSMAT
 <Feb10-2023> <06:51:53>  >>>> ORTHON
 <Feb10-2023> <06:51:53>  >>>> GENPT
 <Feb10-2023> <06:51:53>  Block Length= 106
 <Feb10-2023> <06:51:53>  >>>> PTBAS
 <Feb10-2023> <06:51:53>  >>>> CYCLE
 <Feb10-2023> <06:51:53>              |Error|         MaxErr       Wt(A-DIIS)
 <Feb10-2023> <06:51:53>      1      0.00000000      0.00000000
 <Feb10-2023> <06:51:53>      2      7.14879069      2.36431496    100.0
 <Feb10-2023> <06:51:53>      3      4.21227824      1.56853098    100.0
 <Feb10-2023> <06:51:53>      4      1.82331032      0.62147007    100.0
 <Feb10-2023> <06:51:53>      5      1.05882822      0.36255337    100.0
 <Feb10-2023> <06:51:53>      6      0.38630237      0.12592649    100.0
 <Feb10-2023> <06:51:53>      7      0.28473462      0.09561243     95.6
 <Feb10-2023> <06:51:53>      8      0.07042704      0.02358176     22.8
 <Feb10-2023> <06:51:53>      9      0.02402163      0.00807014      7.1
 <Feb10-2023> <06:51:53>     10      0.00169154      0.00056938      0.0
 <Feb10-2023> <06:51:53>     11      0.00000082      0.00000027      0.0
 <Feb10-2023> <06:51:53>     12      0.00000002      0.00000001      0.0
 <Feb10-2023> <06:51:53>  SCF converged
 <Feb10-2023> <06:51:53>     13      0.00000000      0.00000000      0.0
 <Feb10-2023> <06:51:53>  >>>> POPAN
 <Feb10-2023> <06:51:53>  >>>> DEBYE
 <Feb10-2023> <06:51:53>  NORMAL TERMINATION
 <Feb10-2023> <06:51:53>  END

 *******************************************************************************
 *                                                                             *
 *  -------------------------------------                                      *
 *   Amsterdam Density Functional  (ADF)         2019                          *
 *  -------------------------------------                                      *
 *                                               r74351 2019-04-25             *
 *                                                                             *
 *                                                                             *
 *                            =====================                            *
 *                            |                   |                            *
 *                            |     D I R A C     |                            *
 *                            |                   |                            *
 *                            =====================                            *
 *                                                                             *
 *                                                                             *
 *   Online information and documentation:  https://www.scm.com/support/       *
 *   E-mail:  support@scm.com   info@scm.com                                   *
 *                                                                             *
 *   Scientific publications using ADF results must be properly referenced     *
 *   See the User Manuals (or the web site) for recommended citations          *
 *   The terms and conditions of the End User License Agreement apply to       *
 *   the use of ADF, https://www.scm.com/license-terms/                        *
 *                                                                             *
 **********************  x86_64_linux_intel / intelmpi  ************************
 
 Licensed to: Dr. Carles Bo / Institute of Chemical Research of Catalonia ( (ICIQ) / Tarragona / Spain 2022-11-28 14:37:29
 SCM User ID: u7609
  
 DIRAC 2019  RunTime: Feb10-2023 06:51:54  Nodes: 1  Procs: 1

 Temporary files are created in /scratch/kid_0.1707637089

1
 OXYGEN ATOM 1s CORE RELATIVISTIC, Point Nuc, A and c from li
 N J RN H ZN XION ANUC CLIGHT
 5000    4100.00000000197.36710137  8.00000000  0.00000000   15.994914  0.1370360E+03
  PH   PHI     EPS        DEL        DELRVR
  0.30  0.30     2500.00  0.00001000  0.00001000
 IDIRC  NC1  NDEBU NPRIN  IPUN IRCOR IWCOR
   1   300     0     0     0     0     1
   XALPHA      XLATTER      RNUC
  0.70000000  0.00000000  0.00000000 Point Charge
   XN   XL   XJ      XE          XZ      XDELL
  1.0  0.0  0.5      -5.000       2.000     0.00000
  2.0  0.0  0.5      -1.000       2.000     0.00000
  2.0  1.0  0.5      -1.000       2.000     0.00000
  2.0  1.0  1.5      -1.000       2.000     0.00000
 ICORP=  0  NPCL=  0  DEMP=0.00  PEPS=0.000000
 R(1)=  0.1000000E-08 D=  0.1005080E+01 RNUC=  0.0000000E+00
 converged at cycle   28  DENSITY AVERAGING    0.2400
  MAXIMUM ERROR IN R.V(R) IS   0.81125670E-05
 Q,EY,EV,EZ,ESUM,ETOT,RHO  0.800000E+01 -0.101247E+02 -0.114961E+03 -0.177573E+03 -0.405053E+02 -0.743427E+02  0.414766E-14


 DIRAC CALCULATION
1                    OXYGEN ATOM 1s CORE RELATIVISTIC, Point Nuc, A and c from libtc


 EXCHANGE COEFFICIENT=  0.7000000           TAIL CORRECTION=  0.           NUCLEAR RADIUS=  0.000E+00
0                       ORBITAL    N    L    J     ELECTRONS     EIGENVALUE                DELTA OF EIGENV.

                          1S1/2  1.0  0.0  0.5     2.000       -0.1880014E+02                 0.7264358E-06
                          2S1/2  2.0  0.0  0.5     2.000       -0.8412236E+00                 0.5932752E-05
                          2P1/2  2.0  1.0  0.5     2.000       -0.3063203E+00                 0.5998471E-05
                          2P3/2  2.0  1.0  1.5     2.000       -0.3049609E+00                 0.5986971E-05


                                        NUCLEAR CHARGE=    8.000000
                            INTEGRAL OF CHARGE DENSITY=    8.000000
                           SUM OF THE ORBITAL ENERGIES=    -40.5053
                                          TOTAL ENERGY=    -74.3427
                                        KINETIC ENERGY=     74.4552
                             NUCLEAR ATTRACTION ENERGY=   -177.5730
                             ELECTRON REPULSION ENERGY=     36.3686
[...]
 <Feb10-2023> <06:58:59>  cart. step rms                      0.00623526     0.00666667    T
  Coordinates in Geometry Cycle 12
    Atom         X           Y           Z   (Angstrom)
    1.O        -2.001721    0.159577   -1.319278
    2.O         1.135624    1.650200   -1.325419
    3.Mo       -0.807868    1.688994   -1.034446
    4.Mo       -1.056575   -1.539438   -1.043073
    5.O         0.865268   -1.811827   -1.327790
    6.Mo        1.867240   -0.147889   -1.046824
    7.O        -1.723719   -2.521709    0.214373
    8.O         2.771841   -0.218103   -2.542662
    9.O         3.049532   -0.243026    0.212124
   10.O        -1.197674    2.501366   -2.533344
   11.O        -1.321268    2.766959    0.217256
   12.O        -1.570536   -2.285441   -2.540167
   13.O         0.002742   -0.005011    0.121189
   14.P        -0.002814    0.000586    1.990453
   15.O         0.642221   -1.353115    2.277311
   16.O        -1.499807    0.119686    2.268298
   17.O         0.847514    1.238192    2.268710
 <Feb10-2023> <06:58:59>  >>>> CORORT
 <Feb10-2023> <06:58:59>  >>>> CLSMAT
 <Feb10-2023> <06:58:59>  >>>> ORTHON
 <Feb10-2023> <06:58:59>  >>>> GENPT
 <Feb10-2023> <06:58:59>  Block Length= 128
 <Feb10-2023> <06:58:59>  >>>> PTBAS
 <Feb10-2023> <06:58:59>  combining surface points...
 <Feb10-2023> <06:58:59>  combining surface points...
 <Feb10-2023> <06:58:59>  combining surface points...
 <Feb10-2023> <06:58:59>  >>>> CYCLE
 <Feb10-2023> <06:59:01>              |Error|         MaxErr       Wt(A-DIIS)
 <Feb10-2023> <06:59:01>      1      0.13846330      0.01453907
 <Feb10-2023> <06:59:03>      2      1.50492681      0.23681375    100.0
 <Feb10-2023> <06:59:04>      3      0.29740916      0.03458859    100.0
 <Feb10-2023> <06:59:05>      4      0.25895557      0.03565909     35.0
 <Feb10-2023> <06:59:06>      5      0.51003820      0.05352355    100.0
 <Feb10-2023> <06:59:08>      6      0.35805068      0.04453206    100.0
 <Feb10-2023> <06:59:09>      7      0.13636977      0.01763515     16.8
 <Feb10-2023> <06:59:10>      8      0.03754274      0.00514735      4.2
 <Feb10-2023> <06:59:11>      9      0.01650640      0.00286734      1.9
 <Feb10-2023> <06:59:12>     10      0.00559056      0.00073639      0.0
 <Feb10-2023> <06:59:13>     11      0.00254718      0.00032278      0.0
 <Feb10-2023> <06:59:15>     12      0.00148463      0.00018718      0.0
 <Feb10-2023> <06:59:16>     13      0.00036191      0.00005101      0.0
 <Feb10-2023> <06:59:17>     14      0.00035341      0.00007513      0.0
 <Feb10-2023> <06:59:18>     15      0.00015443      0.00002787      0.0
 <Feb10-2023> <06:59:19>     16      0.00038412      0.00006998      0.0
 <Feb10-2023> <06:59:20>     17      0.00002248      0.00000431      0.0
 <Feb10-2023> <06:59:21>     18      0.00001529      0.00000233      0.0
 <Feb10-2023> <06:59:22>     19      0.00000528      0.00000079      0.0
 <Feb10-2023> <06:59:22>  SCF converged
 <Feb10-2023> <06:59:23>     20      0.00000246      0.00000056      0.0
 <Feb10-2023> <06:59:24>  >>>> TOTEN
 <Feb10-2023> <06:59:25>  >>>> POPAN
 <Feb10-2023> <06:59:25>  >>>> DEBYE
 <Feb10-2023> <06:59:25>  >>>> ENGRAD
 <Feb10-2023> <06:59:29>  current energy                               -5.32491042 Hartree
 <Feb10-2023> <06:59:29>  energy change                      -0.00011254     0.00100000    T
 <Feb10-2023> <06:59:29>  constrained gradient max            0.00446836     0.00100000    F
 <Feb10-2023> <06:59:29>  constrained gradient rms            0.00133122     0.00066667    F
 <Feb10-2023> <06:59:29>  gradient max                        0.00446836
 <Feb10-2023> <06:59:29>  gradient rms                        0.00133122
 <Feb10-2023> <06:59:29>  cart. step max                      0.01836183     0.01000000    F
 <Feb10-2023> <06:59:29>  cart. step rms                      0.00710065     0.00666667    F
  Coordinates in Geometry Cycle 13
    Atom         X           Y           Z   (Angstrom)
    1.O        -2.004574    0.155956   -1.316703
    2.O         1.134950    1.652115   -1.322997
    3.Mo       -0.808014    1.685337   -1.042815
    4.Mo       -1.057959   -1.541122   -1.048017
    5.O         0.866343   -1.810862   -1.327608
    6.Mo        1.867148   -0.146260   -1.051872
    7.O        -1.726309   -2.529330    0.205523
    8.O         2.769560   -0.214914   -2.551035
    9.O         3.053522   -0.235890    0.204607
   10.O        -1.193447    2.497741   -2.545627
   11.O        -1.324941    2.763663    0.208124
   12.O        -1.571001   -2.279875   -2.551025
   13.O         0.001729   -0.003543    0.125332
   14.P        -0.001712    0.000979    2.003368
   15.O         0.632867   -1.357518    2.294520
   16.O        -1.497211    0.132685    2.285862
   17.O         0.859048    1.230839    2.287072
 <Feb10-2023> <06:59:29>  >>>> CORORT
 <Feb10-2023> <06:59:29>  >>>> CLSMAT
 <Feb10-2023> <06:59:29>  >>>> ORTHON
 <Feb10-2023> <06:59:29>  >>>> GENPT
 <Feb10-2023> <06:59:29>  Block Length= 128
 <Feb10-2023> <06:59:29>  >>>> PTBAS
 <Feb10-2023> <06:59:30>  combining surface points...
 <Feb10-2023> <06:59:30>  combining surface points...
 <Feb10-2023> <06:59:30>  combining surface points...
 <Feb10-2023> <06:59:30>  >>>> CYCLE
 <Feb10-2023> <06:59:32>              |Error|         MaxErr       Wt(A-DIIS)
 <Feb10-2023> <06:59:32>      1      0.13939981      0.01363088
 <Feb10-2023> <06:59:33>      2      1.50024102      0.23509618    100.0
 <Feb10-2023> <06:59:34>      3      0.28347453      0.03616051    100.0
 <Feb10-2023> <06:59:35>      4      0.35353932      0.04470923    100.0
 <Feb10-2023> <06:59:37>      5      0.80761817      0.08669845    100.0
 <Feb10-2023> <06:59:38>      6      0.44969153      0.05801152    100.0
 <Feb10-2023> <06:59:39>      7      0.26881541      0.03816687     37.5
 <Feb10-2023> <06:59:40>      8      0.11470514      0.01332038     12.4
 <Feb10-2023> <06:59:41>      9      0.03929928      0.00607778      5.1
 <Feb10-2023> <06:59:43>     10      0.00976874      0.00140458      0.4
 <Feb10-2023> <06:59:44>     11      0.00247051      0.00038193      0.0
 <Feb10-2023> <06:59:45>     12      0.00178975      0.00025157      0.0
 <Feb10-2023> <06:59:46>     13      0.00092263      0.00013555      0.0
 <Feb10-2023> <06:59:47>     14      0.00020351      0.00002309      0.0
 <Feb10-2023> <06:59:48>     15      0.00010285      0.00001425      0.0
 <Feb10-2023> <06:59:49>     16      0.00008434      0.00001457      0.0
 <Feb10-2023> <06:59:50>     17      0.00002954      0.00000360      0.0
 <Feb10-2023> <06:59:51>     18      0.00001303      0.00000217      0.0
 <Feb10-2023> <06:59:52>     19      0.00000575      0.00000085      0.0
 <Feb10-2023> <06:59:53>  SCF converged
 <Feb10-2023> <06:59:53>     20      0.00000403      0.00000051      0.0
 <Feb10-2023> <06:59:54>  >>>> TOTEN
 <Feb10-2023> <06:59:55>  >>>> POPAN
 <Feb10-2023> <06:59:55>  >>>> DEBYE
 <Feb10-2023> <06:59:55>  >>>> ENGRAD
 <Feb10-2023> <06:59:59>  current energy                               -5.32511462 Hartree
 <Feb10-2023> <06:59:59>  energy change                      -0.00020420     0.00100000    T
 <Feb10-2023> <06:59:59>  constrained gradient max            0.00222361     0.00100000    F
 <Feb10-2023> <06:59:59>  constrained gradient rms            0.00061253     0.00066667    T
 <Feb10-2023> <06:59:59>  gradient max                        0.00222361
 <Feb10-2023> <06:59:59>  gradient rms                        0.00061253
 <Feb10-2023> <06:59:59>  cart. step max                      0.00565878     0.01000000    T
 <Feb10-2023> <06:59:59>  cart. step rms                      0.00249540     0.00666667    T
  Coordinates in Geometry Cycle 14
    Atom         X           Y           Z   (Angstrom)
    1.O        -2.006324    0.156094   -1.312395
    2.O         1.136118    1.653153   -1.319140
    3.Mo       -0.807026    1.684107   -1.043934
    4.Mo       -1.058910   -1.540517   -1.048184
    5.O         0.865754   -1.810651   -1.325032
    6.Mo        1.866638   -0.146101   -1.051567
    7.O        -1.729861   -2.531287    0.202198
    8.O         2.765143   -0.214371   -2.553459
    9.O         3.055823   -0.236723    0.202696
   10.O        -1.190785    2.492082   -2.549919
   11.O        -1.323631    2.765573    0.204559
   12.O        -1.568757   -2.275284   -2.554261
   13.O         0.001185   -0.003176    0.124785
   14.P        -0.001369    0.001546    2.007466
   15.O         0.636628   -1.355621    2.294494
   16.O        -1.497032    0.127645    2.289248
   17.O         0.856407    1.233531    2.289155
 <Feb10-2023> <06:59:59>  >>>> CORORT
 <Feb10-2023> <06:59:59>  >>>> CLSMAT
 <Feb10-2023> <06:59:59>  >>>> ORTHON
 <Feb10-2023> <06:59:59>  >>>> GENPT
 <Feb10-2023> <06:59:59>  Block Length= 128
 <Feb10-2023> <06:59:59>  >>>> PTBAS
 <Feb10-2023> <07:00:00>  combining surface points...
 <Feb10-2023> <07:00:00>  combining surface points...
 <Feb10-2023> <07:00:00>  combining surface points...
 <Feb10-2023> <07:00:00>  >>>> CYCLE
 <Feb10-2023> <07:00:02>              |Error|         MaxErr       Wt(A-DIIS)
 <Feb10-2023> <07:00:02>      1      0.13347203      0.01335142
 <Feb10-2023> <07:00:03>      2      1.48804283      0.23406843    100.0
 <Feb10-2023> <07:00:05>      3      0.34248828      0.03317414    100.0
 <Feb10-2023> <07:00:06>      4      0.17176749      0.02336814     22.6
 <Feb10-2023> <07:00:07>      5      0.38719851      0.04722183    100.0
 <Feb10-2023> <07:00:08>      6      0.28057326      0.03428717    100.0
 <Feb10-2023> <07:00:10>      7      0.36954181      0.05679183    100.0
 <Feb10-2023> <07:00:11>      8      0.08784570      0.00938301      8.5
 <Feb10-2023> <07:00:12>      9      0.03434681      0.00379630      2.8
 <Feb10-2023> <07:00:13>     10      0.00871880      0.00145499      0.5
 <Feb10-2023> <07:00:14>     11      0.00236184      0.00027490      0.0
 <Feb10-2023> <07:00:15>     12      0.00220409      0.00043804      0.0
 <Feb10-2023> <07:00:16>     13      0.00046878      0.00007823      0.0
 <Feb10-2023> <07:00:18>     14      0.00022650      0.00003513      0.0
 <Feb10-2023> <07:00:19>     15      0.00013840      0.00002261      0.0
 <Feb10-2023> <07:00:20>     16      0.00008549      0.00001660      0.0
 <Feb10-2023> <07:00:21>     17      0.00002105      0.00000251      0.0
 <Feb10-2023> <07:00:22>     18      0.00003704      0.00000437      0.0
 <Feb10-2023> <07:00:23>     19      0.00000626      0.00000096      0.0
 <Feb10-2023> <07:00:23>  SCF converged
 <Feb10-2023> <07:00:24>     20      0.00000452      0.00000059      0.0
 <Feb10-2023> <07:00:24>  >>>> TOTEN
 <Feb10-2023> <07:00:26>  >>>> POPAN
 <Feb10-2023> <07:00:26>  >>>> DEBYE
 <Feb10-2023> <07:00:26>  >>>> ENGRAD
 <Feb10-2023> <07:00:30>  current energy                               -5.32513038 Hartree
 <Feb10-2023> <07:00:30>  energy change                      -0.00001576     0.00100000    T
 <Feb10-2023> <07:00:30>  constrained gradient max            0.00175155     0.00100000    F
 <Feb10-2023> <07:00:30>  constrained gradient rms            0.00045131     0.00066667    T
 <Feb10-2023> <07:00:30>  gradient max                        0.00175155
 <Feb10-2023> <07:00:30>  gradient rms                        0.00045131
 <Feb10-2023> <07:00:30>  cart. step max                      0.01211799     0.01000000    F
 <Feb10-2023> <07:00:30>  cart. step rms                      0.00437294     0.00666667    T
  Coordinates in Geometry Cycle 15
    Atom         X           Y           Z   (Angstrom)
    1.O        -2.008965    0.156265   -1.306096
    2.O         1.137821    1.654183   -1.311910
    3.Mo       -0.805485    1.681553   -1.044901
    4.Mo       -1.060797   -1.539815   -1.049680
    5.O         0.863920   -1.809618   -1.322137
    6.Mo        1.865392   -0.146176   -1.049952
    7.O        -1.736905   -2.534175    0.195416
    8.O         2.758817   -0.212713   -2.554921
    9.O         3.057425   -0.241348    0.201429
   10.O        -1.186927    2.483168   -2.554976
   11.O        -1.320265    2.767768    0.200429
   12.O        -1.565560   -2.268345   -2.560259
   13.O        -0.000335   -0.003561    0.123211
   14.P        -0.000064    0.002259    2.012459
   15.O         0.648746   -1.350222    2.296276
   16.O        -1.495881    0.119882    2.294996
   17.O         0.849065    1.240895    2.287326
 <Feb10-2023> <07:00:30>  >>>> CORORT
 <Feb10-2023> <07:00:30>  >>>> CLSMAT
 <Feb10-2023> <07:00:30>  >>>> ORTHON
 <Feb10-2023> <07:00:30>  >>>> GENPT
 <Feb10-2023> <07:00:30>  Block Length= 128
 <Feb10-2023> <07:00:30>  >>>> PTBAS
 <Feb10-2023> <07:00:31>  combining surface points...
 <Feb10-2023> <07:00:31>  combining surface points...
 <Feb10-2023> <07:00:31>  combining surface points...
 <Feb10-2023> <07:00:31>  >>>> CYCLE
 <Feb10-2023> <07:00:33>              |Error|         MaxErr       Wt(A-DIIS)
 <Feb10-2023> <07:00:33>      1      0.13540454      0.01331891
 <Feb10-2023> <07:00:34>      2      1.47546404      0.23402346    100.0
 <Feb10-2023> <07:00:35>      3      0.33526363      0.03367981    100.0
 <Feb10-2023> <07:00:36>      4      0.17048561      0.02277357     22.0
 <Feb10-2023> <07:00:37>      5      0.38453100      0.04729067    100.0
 <Feb10-2023> <07:00:39>      6      0.27928308      0.03596717    100.0
 <Feb10-2023> <07:00:40>      7      0.37981429      0.05799500    100.0
 <Feb10-2023> <07:00:41>      8      0.08769352      0.01071034      9.8
 <Feb10-2023> <07:00:42>      9      0.04027864      0.00474562      3.8
 <Feb10-2023> <07:00:43>     10      0.00981166      0.00134776      0.4
 <Feb10-2023> <07:00:45>     11      0.00476861      0.00065516      0.0
 <Feb10-2023> <07:00:46>     12      0.00271945      0.00038824      0.0
 <Feb10-2023> <07:00:47>     13      0.00141029      0.00026803      0.0
 <Feb10-2023> <07:00:48>     14      0.00260282      0.00047983      0.0
 <Feb10-2023> <07:00:49>     15      0.00043344      0.00009140      0.0
 <Feb10-2023> <07:00:50>     16      0.00027467      0.00005953      0.0
 <Feb10-2023> <07:00:51>     17      0.00019433      0.00002229      0.0
 <Feb10-2023> <07:00:52>     18      0.00004331      0.00000647      0.0
 <Feb10-2023> <07:00:53>     19      0.00003222      0.00000478      0.0
 <Feb10-2023> <07:00:55>     20      0.00000861      0.00000160      0.0
 <Feb10-2023> <07:00:56>     21      0.00000392      0.00000048      0.0
 <Feb10-2023> <07:00:56>  SCF converged
 <Feb10-2023> <07:00:57>     22      0.00000648      0.00000089      0.0
 <Feb10-2023> <07:00:57>  >>>> TOTEN
 <Feb10-2023> <07:00:58>  >>>> POPAN
 <Feb10-2023> <07:00:58>  >>>> DEBYE
 <Feb10-2023> <07:00:59>  >>>> ENGRAD
 <Feb10-2023> <07:01:02>  current energy                               -5.32511497 Hartree
 <Feb10-2023> <07:01:02>  energy change                       0.00001541     0.00100000    T
 <Feb10-2023> <07:01:02>  constrained gradient max            0.00072197     0.00100000    T
 <Feb10-2023> <07:01:02>  constrained gradient rms            0.00023902     0.00066667    T
 <Feb10-2023> <07:01:02>  gradient max                        0.00072197
 <Feb10-2023> <07:01:02>  gradient rms                        0.00023902
 <Feb10-2023> <07:01:02>  cart. step max                      0.00189620     0.01000000    T
 <Feb10-2023> <07:01:02>  cart. step rms                      0.00065568     0.00666667    T
 <Feb10-2023> <07:01:02>  GEOMETRY CONVERGED
 <Feb10-2023> <07:01:02>  Calculating Energy Terms for Final Geometry
  Coordinates in Geometry Cycle 15
    Atom         X           Y           Z   (Angstrom)
    1.O        -2.008965    0.156265   -1.306096
    2.O         1.137821    1.654183   -1.311910
    3.Mo       -0.805485    1.681553   -1.044901
    4.Mo       -1.060797   -1.539815   -1.049680
    5.O         0.863920   -1.809618   -1.322137
    6.Mo        1.865392   -0.146176   -1.049952
    7.O        -1.736905   -2.534175    0.195416
    8.O         2.758817   -0.212713   -2.554921
    9.O         3.057425   -0.241348    0.201429
   10.O        -1.186927    2.483168   -2.554976
   11.O        -1.320265    2.767768    0.200429
   12.O        -1.565560   -2.268345   -2.560259
   13.O        -0.000335   -0.003561    0.123211
   14.P        -0.000064    0.002259    2.012459
   15.O         0.648746   -1.350222    2.296276
   16.O        -1.495881    0.119882    2.294996
   17.O         0.849065    1.240895    2.287326
 <Feb10-2023> <07:01:02>  >>>> CORORT
 <Feb10-2023> <07:01:02>  >>>> CLSMAT
 <Feb10-2023> <07:01:02>  >>>> ORTHON
 <Feb10-2023> <07:01:02>  >>>> GENPT
 <Feb10-2023> <07:01:03>  Block Length= 128
 <Feb10-2023> <07:01:03>  >>>> PTBAS
 <Feb10-2023> <07:01:03>  combining surface points...
 <Feb10-2023> <07:01:03>  combining surface points...
 <Feb10-2023> <07:01:03>  combining surface points...
 <Feb10-2023> <07:01:03>  >>>> CYCLE
 <Feb10-2023> <07:01:05>              |Error|         MaxErr       Wt(A-DIIS)
 <Feb10-2023> <07:01:05>      1      0.12995427      0.01258927
 <Feb10-2023> <07:01:06>      2      1.46800584      0.21547704    100.0
 <Feb10-2023> <07:01:08>      3      0.33476536      0.04222550    100.0
 <Feb10-2023> <07:01:09>      4      0.16519622      0.02072732     19.9
 <Feb10-2023> <07:01:10>      5      0.37552547      0.05539418    100.0
 <Feb10-2023> <07:01:11>      6      0.27777384      0.03559646    100.0
 <Feb10-2023> <07:01:13>      7      0.39975644      0.07460426    100.0
 <Feb10-2023> <07:01:14>      8      0.08502627      0.01185696     11.0
 <Feb10-2023> <07:01:15>      9      0.03767220      0.00433204      3.4
 <Feb10-2023> <07:01:16>     10      0.00959842      0.00127740      0.3
 <Feb10-2023> <07:01:17>     11      0.00398426      0.00050447      0.0
 <Feb10-2023> <07:01:18>     12      0.00310481      0.00054049      0.0
 <Feb10-2023> <07:01:20>     13      0.00127000      0.00022381      0.0
 <Feb10-2023> <07:01:21>     14      0.00277315      0.00052006      0.0
 <Feb10-2023> <07:01:22>     15      0.00041744      0.00008814      0.0
 <Feb10-2023> <07:01:23>     16      0.00027843      0.00005858      0.0
 <Feb10-2023> <07:01:24>     17      0.00019313      0.00002765      0.0
 <Feb10-2023> <07:01:25>     18      0.00002901      0.00000651      0.0
 <Feb10-2023> <07:01:26>     19      0.00003305      0.00000534      0.0
 <Feb10-2023> <07:01:27>     20      0.00000947      0.00000124      0.0
 <Feb10-2023> <07:01:28>     21      0.00000458      0.00000068      0.0
 <Feb10-2023> <07:01:29>  SCF converged
 <Feb10-2023> <07:01:29>     22      0.00000474      0.00000068      0.0
 <Feb10-2023> <07:01:30>  >>>> TOTEN
 <Feb10-2023> <07:01:33>  QTAIM: determining topology...
 <Feb10-2023> <07:01:34>  >>>> POPAN
 <Feb10-2023> <07:01:34>  >>>> DEBYE
 <Feb10-2023> <07:01:34>  >>>> AMETS
 <Feb10-2023> <07:01:34>  >>>> POPUL
 <Feb10-2023> <07:01:34>   Bond Energy          -5.32511497 a.u.
 <Feb10-2023> <07:01:34>   Bond Energy        -144.90375102 eV
 <Feb10-2023> <07:01:34>   Bond Energy       -3341.56       kcal/mol
 <Feb10-2023> <07:01:34>  >>>> ENHESS
 <Feb10-2023> <07:01:37>  === NUCLEUS:     1
 <Feb10-2023> <07:02:42>  === NUCLEUS:     2
 <Feb10-2023> <07:03:44>  === NUCLEUS:     3
 <Feb10-2023> <07:04:46>  === NUCLEUS:     4
 <Feb10-2023> <07:05:48>  === NUCLEUS:     5
 <Feb10-2023> <07:06:49>  === NUCLEUS:     6
 <Feb10-2023> <07:07:50>  === NUCLEUS:     7
 <Feb10-2023> <07:08:50>  === NUCLEUS:     8
 <Feb10-2023> <07:09:52>  === NUCLEUS:     9
 <Feb10-2023> <07:10:51>  === NUCLEUS:    10
 <Feb10-2023> <07:11:52>  === NUCLEUS:    11
 <Feb10-2023> <07:12:54>  === NUCLEUS:    12
 <Feb10-2023> <07:13:56>  === NUCLEUS:    13
 <Feb10-2023> <07:14:59>  === NUCLEUS:    14
 <Feb10-2023> <07:16:05>  === NUCLEUS:    15
 <Feb10-2023> <07:17:11>  === NUCLEUS:    16
 <Feb10-2023> <07:18:17>  === NUCLEUS:    17
 <Feb10-2023> <07:19:20>  >>>> CALC_HESS_PMAT
 <Feb10-2023> <07:19:28>  >>>> CALC_HESS_WMAT
 <Feb10-2023> <07:19:30>  NORMAL TERMINATION
 <Feb10-2023> <07:19:30>  END
