
 *******************************************************************************
 *                                                                             *
 *  -------------------------------------                                      *
 *   Amsterdam Density Functional  (ADF)         2019                          *
 *  -------------------------------------                                      *
 *                                               r74351 2019-04-25             *
 *                                                                             *
 *                                                                             *
 *                            =====================                            *
 *                            |                   |                            *
 *                            |     D I R A C     |                            *
 *                            |                   |                            *
 *                            =====================                            *
 *                                                                             *
 *                                                                             *
 *   Online information and documentation:  https://www.scm.com/support/       *
 *   E-mail:  support@scm.com   info@scm.com                                   *
 *                                                                             *
 *   Scientific publications using ADF results must be properly referenced     *
 *   See the User Manuals (or the web site) for recommended citations          *
 *   The terms and conditions of the End User License Agreement apply to       *
 *   the use of ADF, https://www.scm.com/license-terms/                        *
 *                                                                             *
 **********************  x86_64_linux_intel / intelmpi  ************************
 
 Licensed to: Dr. Carles Bo / Institute of Chemical Research of Catalonia ( (ICIQ) / Tarragona / Spain 2022-11-28 14:37:29
 SCM User ID: u7609
  
 DIRAC 2019  RunTime: Feb10-2023 06:45:49  Nodes: 1  Procs: 1

 Temporary files are created in /scratch/kid_0.1534113536

1
 HYDROGEN ATOM RELATIVISTIC, Point Nuc, A and c from libtc   
 N J RN H ZN XION ANUC CLIGHT
 5000    1100.00000000197.36710137  1.00000000  0.00000000    1.007825  0.1370360E+03
  PH   PHI     EPS        DEL        DELRVR
  0.30  0.30     2500.00  0.00001000  0.00001000
 IDIRC  NC1  NDEBU NPRIN  IPUN IRCOR IWCOR
   1   300     0     0     0     0     0
   XALPHA      XLATTER      RNUC
  0.70000000  0.00000000  0.00000000 Point Charge
   XN   XL   XJ      XE          XZ      XDELL
  1.0  0.0  0.5      -1.000       1.000     0.00000
 ICORP=  0  NPCL=  0  DEMP=0.00  PEPS=0.000000
 R(1)=  0.1000000E-08 D=  0.1005080E+01 RNUC=  0.0000000E+00
 converged at cycle   32  DENSITY AVERAGING    0.2400
  MAXIMUM ERROR IN R.V(R) IS   0.79874357E-05
 Q,EY,EV,EZ,ESUM,ETOT,RHO  0.100000E+01 -0.266614E+00 -0.619969E+00 -0.910779E+00 -0.203940E+00 -0.415998E+00  0.337036E-17


 DIRAC CALCULATION
1                    HYDROGEN ATOM RELATIVISTIC, Point Nuc, A and c from libtc


 EXCHANGE COEFFICIENT=  0.7000000           TAIL CORRECTION=  0.           NUCLEAR RADIUS=  0.000E+00
0                       ORBITAL    N    L    J     ELECTRONS     EIGENVALUE                DELTA OF EIGENV.

                          1S1/2  1.0  0.0  0.5     1.000       -0.2039397E+00                 0.2720093E-06


                                        NUCLEAR CHARGE=    1.000000
                            INTEGRAL OF CHARGE DENSITY=    1.000000
                           SUM OF THE ORBITAL ENERGIES=     -0.2039
                                          TOTAL ENERGY=     -0.4160
                                        KINETIC ENERGY=      0.4160
                             NUCLEAR ATTRACTION ENERGY=     -0.9108
                             ELECTRON REPULSION ENERGY=      0.2787
                                       EXCHANGE ENERGY=     -0.2000

 *******************************************************************************

                             D I R A C   E X I T
 NORMAL TERMINATION



 =================
 Timing Statistics
 =================
  
 Total Used :                     CPU=        0.06      System=        0.00     Elapsed=        0.06

 Calls  Section                     ( Mean, Percentage )
 ---------------------------------------------------------------------------------------------------
     2  ><      ................      0.00    0.00             0.00    0.00             0.00    0.01
     1  EXIT PROCEDURE .........      0.06  100.00             0.00    0.00             0.06   99.99


 Currently Open Files (EXIT00)
 ====================

 Unit    Access Format  Status   Type       Ident (file)
 -------------------------------------------------------
   3      SEQ    FORM   TRANSP  NORMAL      LOGFILE
                                          ( logfile )
 
Create H   file=TZP-H
XC
  GGA PBE
End
relativistic ZORA
Corepotentials t12.rel
End

 *******************************************************************************
 *                                                                             *
 *  -------------------------------------                                      *
 *   Amsterdam Density Functional  (ADF)         2019                          *
 *  -------------------------------------                                      *
 *                                               r74351 2019-04-25             *
 *                                                                             *
 *                                                                             *
 *                              =================                              *
 *                              |               |                              *
 *                              |     A D F     |                              *
 *                              |               |                              *
 *                              =================                              *
 *                                                                             *
 *                                                                             *
 *   Online information and documentation:  https://www.scm.com/support/       *
 *   E-mail:  support@scm.com   info@scm.com                                   *
 *                                                                             *
 *   Scientific publications using ADF results must be properly referenced     *
 *   See the User Manuals (or the web site) for recommended citations          *
 *   The terms and conditions of the End User License Agreement apply to       *
 *   the use of ADF, https://www.scm.com/license-terms/                        *
 *                                                                             *
 **********************  x86_64_linux_intel / intelmpi  ************************
 
 Licensed to: Dr. Carles Bo / Institute of Chemical Research of Catalonia ( (ICIQ) / Tarragona / Spain 2022-11-28 14:37:29
 SCM User ID: u7609
  
 ADF 2019  RunTime: Feb10-2023 06:45:49  Nodes: 1  Procs: 1

 Temporary files are created in /scratch/kid_0.1330422743

 Hydrogen (TZP)



 ===========================
 A T T A C H E D   F I L E S
 ===========================
  
 CREATE - Data File:    TZP-H
                        Hydrogen (TZP)
 Core Potentials:
         file : t12.rel



 ===============================
 M O D E L   P A R A M E T E R S
 ===============================
  
 DENSITY FUNCTIONAL POTENTIAL (scf)
    LDA:                               PW92                                    == Not Default ==
    Gradient Corrections:              PBEc PBEx                               == Not Default ==

 SPIN  (restricted / unrestr.)
    Molecule:                          Restricted                               

 OTHER ASPECTS
    Relativistic Corrections:          scalar (ZORA,MAPA)                      == Not Default ==

    Nuclear Charge Density Model:      Point Charge Nuclei                      
    Core Treatment:                    Frozen Orbital(s)                        

    Hyperfine or Zeeman Interaction:   ---                                      



 =====================================
 S Y M M E T R Y ,   E L E C T R O N S
 =====================================
  
 Symmetry: ATOM

 Irreducible Representations, including subspecies
 -------------------------------------------------
 S
 P:x  P:y  P:z
 D:z2  D:x2-y2  D:xy  D:xz  D:yz
 F:z3  F:z  F:xyz  F:z2x  F:z2y  F:x  F:y


 Configuration of Valence Electrons
 ==================================

          Occupation Numbers
          -------------------------------------------------
 S        1
 P        0
 D        0
 F        0
          -------------------------------------------------

 Total:   1

 Net Charge: 0 (Nuclei minus Electrons)

 Preset values for MO occupations will be applied through SCF cycle no. 1000000
 Thereafter, the program will assign electrons to MOs that are spatially
 similar to the occupied MOs in a "reference" cycle ("KeepOrbitals").
 The reference cycle is always the PREVIOUS cycle: it will evolve with
 the SCF procedure.



 ================================
 (Slater-type)  F U N C T I O N S  ***  (Basis and Fit)  ***
 ================================
  

 Atom Type    1  (H)
 ==============

 Valence Basis Sets:   4
 -----------------------
   1 S    0.690000
   1 S    0.920000
   1 S    1.580000
   2 P    1.250000


 BAS: List of all Elementary Cartesian Basis Functions
 =====================================================

 The numbering in the list below (to the right of the function characteristics) is referred
 to in print-outs of MO eigenvectors and Mulliken populations in the BAS representation
 (as contrasted to the SFO representation).

 Notes:
 1. The functions are characterized by a polynomial prefactor (powers of x,y,z and r) and
    an exponential decay factor alpha.
 2. Since the basis sets are specific for an atom TYPE, the individual functions occur on
    all atoms of that type.
 3. The word 'Core' in the left margin signals that it is a Core Function (CF) : not a
    degree of freedom in the valence set, but only used to ensure orthogonalization of
    the other valence basis functions on the frozen Core Orbitals.


 (power of) X  Y  Z  R     Alpha  on Atom
            ==========     =====     ==========

 H                                    1
                                  ---------------------------------------------------------------------------
            0  0  0  0     0.690      1
            0  0  0  0     0.920      2
            0  0  0  0     1.580      3
            1  0  0  0     1.250      4
            0  1  0  0     1.250      5
            0  0  1  0     1.250      6

 Total number of charge fitting functions (nprimf)        50
 Total number of Cartesian basis functions (naos)          6
 Total number of Cartesian core functions  (ncos)          0



 BAS: List of all Elementary Cartesian Basis Functions
 =====================================================

 The numbering in the list below (to the right of the function characteristics) is referred
 to in print-outs of MO eigenvectors and Mulliken populations in the BAS representation
 (as contrasted to the SFO representation).

 Notes:
 1. The functions are characterized by a polynomial prefactor (powers of x,y,z and r) and
    an exponential decay factor alpha.
 2. Since the basis sets are specific for an atom TYPE, the individual functions occur on
    all atoms of that type.
 3. The word 'Core' in the left margin signals that it is a Core Function (CF) : not a
    degree of freedom in the valence set, but only used to ensure orthogonalization of
    the other valence basis functions on the frozen Core Orbitals.


 (power of) X  Y  Z  R     Alpha  on Atom
            ==========     =====     ==========

 H                                    1
                                  ---------------------------------------------------------------------------
            0  0  0  0     0.690      1
            0  0  0  0     0.920      2
            0  0  0  0     1.580      3
            1  0  0  0     1.250      4
            0  1  0  0     1.250      5
            0  0  1  0     1.250      6
1
 ***************************************************************************************************



                                              ***********************
                                              *  T E C H N I C A L  *
                                              ***********************
  



 =============================================================
 P A R A L L E L I Z A T I O N  and  V E C T O R I Z A T I O N
 =============================================================
  
 Nr of parallel processes:                                1
 Maximum vector length in NumInt loops:                 128



 =====================
 S C F   U P D A T E S
 =====================
  
 Max. nr. of cycles:                               300
 Convergence criterion:                              0.0000000100
   secondary criterion:                              0.0000000100

 Mix parameter (when DIIS does not apply):           0.2000000000
 Special mix parameter for the first cycle:          1.0000000000
 Mixed ADIIS+SDIIS will be used                  
    Max number of expansion vectors:                10
    Pure ADIIS when Max([F,P]) is above              0.1000000000
    Pure SDIIS when Max([F,P]) is below              0.0010000000
 Automatic ElectronSmearing (in case of problematic SCF convergence) disabled



 =================
 P R E C I S I O N  ***  (General: NumInt, NeglectFunctionTails, ...)  ***
 =================
  

 NumInt:           Target precision:                12.0000000000
 -------           Initial precision:               10.0000000000
                   Min. precision (optimization):   10.0000000000

 Neglect Functions:          Basis functions:        0.1000000000E-13
 ------------------          Fit functions:          0.1000000000E-13



 ===========================
 L I N E A R   S C A L I N G
 ===========================
  

 Cut-off radii density fit:                        0.1000000000E-97
 Overlap cut-off criterion AO matrix elements:     0.1000000000E-97
 Cut-offs for Coulomb potential and fitted density:0.1000000000E-97
 Cut-off criterion for Coulomb multipole terms:    0.1000000000E-97
 Progressive Convergence parameter:                 0.000000000    
1
 ***************************************************************************************************



                                            ***************************
                                            *  C O M P U T A T I O N  *
                                            ***************************
  

 Number of elements of the density matrix on this node (used, total):        21        21



 ===========================================
 Numerical Integration : Fuzzy Cells (Becke)
 ===========================================
  
 Becke grid quality: VERYGOOD       
  
 Lebedev angular grid order:             min:  13 max:  41
 Nr. of radial points:                   min:  64 max:  64

 Total nr. of points:         64
 Nr. of blocks:                1
 Block length:                64
 Nr. of dummy points:          0


 Test of Precision of the Numerical Integration Grid
 ===================================================

 Integral of the Total Core Density:                   0.00000000000000



 ========================
 Density Fitting (zlmFit)
 ========================
  
 ZlmFit Fit Quality: VERYGOOD       
  
 Max L-expansion:                        min:   0 max:   0
 Nr. of radial interpolation points:     min: 120 max: 120



 =====
 S C F  ***  ScaSCF  ***
 =====
  

 CYCLE    1
 SCF Error: norm([F,P])=      0.000000000000, max([F,P])=      0.000000000000
 orbitals (Q,E):
 ---------------
 S :1...3            ( 1.00    -0.5000)  ( 0.00    -0.0900)  ( 0.00     1.2936)
 P :1...1            ( 0.00     0.1562)

 CYCLE    2
 SCF Error: norm([F,P])=      0.031537872292, max([F,P])=      0.030110494752
 orbitals (Q,E):
 ---------------
 S :1...2            ( 1.00    -0.2218)  ( 0.00     0.1019)
 P :1...1            ( 0.00     0.4189)

 CYCLE    3
  SDIIS (wt  0.000):  0.1996  0.8004
 A-DIIS (wt  1.000):  0.0000  1.0000
  DIIS coefficients:  0.0000  1.0000
 SCF Error: norm([F,P])=      0.008617989401, max([F,P])=      0.008343029399
 orbitals (Q,E):
 ---------------
 S :1...2            ( 1.00    -0.2422)  ( 0.00     0.0889)
 P :1...1            ( 0.00     0.4024)

 CYCLE    4
  SDIIS (wt  0.993):  0.1666  0.8334
 A-DIIS (wt  0.007):  0.0000  1.0000
  DIIS coefficients:  0.1654  0.8346
 SCF Error: norm([F,P])=      0.001732350026, max([F,P])=      0.001718616814
 orbitals (Q,E):
 ---------------
 S :1...2            ( 1.00    -0.2385)  ( 0.00     0.0908)
 P :1...1            ( 0.00     0.4054)

 CYCLE    5
  SDIIS (wt  1.000):  0.0236  0.9764
  DIIS coefficients:  0.0236  0.9764
 SCF Error: norm([F,P])=      0.000043673449, max([F,P])=      0.000039769875
 orbitals (Q,E):
 ---------------
 S :1...2            ( 1.00    -0.2386)  ( 0.00     0.0908)
 P :1...1            ( 0.00     0.4054)

 CYCLE    6
  SDIIS (wt  1.000): -0.0577  1.0577
  DIIS coefficients: -0.0577  1.0577
 SCF Error: norm([F,P])=      0.000002383805, max([F,P])=      0.000002158128
 orbitals (Q,E):
 ---------------
 S :1...2            ( 1.00    -0.2386)  ( 0.00     0.0908)
 P :1...1            ( 0.00     0.4054)

 CYCLE    7
  SDIIS (wt  1.000): -0.0032  1.0032
  DIIS coefficients: -0.0032  1.0032
 SCF Error: norm([F,P])=      0.000000007721, max([F,P])=      0.000000007228
 orbitals (Q,E):
 ---------------
 S :1...2            ( 1.00    -0.2386)  ( 0.00     0.0908)
 P :1...1            ( 0.00     0.4054)

 SCF CONVERGED

 CYCLE    8
1
 ***************************************************************************************************



                                                *******************
                                                *  R E S U L T S  *
                                                *******************
  
 *** Using FIT density in Focky
  SDIIS (wt  1.000):  0.0192  0.9808
  DIIS coefficients:  0.0192  0.9808
 SCF Error: norm([F,P])=      0.000000000151, max([F,P])=      0.000000000141

 Scaled ZORA Orbital Energies, per Irrep and Spin:
 =================================================
                        Occup              E (au)              E (eV)       Diff (eV) with prev. cycle
                        -----      --------------------        ------       --------------------------
 S
               1        1.000     -0.23861775226993E+00        -6.493               7.43E-09
               2        0.000      0.90791701709251E-01         2.471
               3        0.000      0.15217530108908E+01        41.409
 P
               1        0.000      0.40537978060393E+00        11.031


 Partially Occupied:
               1 S                -0.23861775226993E+00
  
 LUMO :        2 S                 0.90791701709251E-01
  


 Orbital Energies, all Irreps
 ========================================

 Irrep        no.  (spin)   Occup              E (au)                E (eV)
 ---------------------------------------------------------------------------
 S             1             1.00       -0.23861775226993E+00        -6.4931
 S             2             0.00        0.90791701709251E-01         2.4706
 P             1             0.00        0.40537978060393E+00        11.0309
 S             3             0.00        0.15217530108908E+01        41.4090


 All Electron Calculation, thus no Orbital Energies of the Core Orbitals are calculated



 =======================================
 M U L L I K E N   P O P U L A T I O N S
 =======================================
  
 The survey below gives for each atom:
 a) the total charge (Z minus electrons)
 b) the net spin polarization (nr of electrons spin-A minus spin-B)
 c) for each spin the atomic electron valence density (integrated) per L-value.

 Atom              Charge    Spin density          S         P         D         F
 ----              ------    ------------       ------    ------    ------    ------
 1 H              -0.0000                       1.0000    0.0000    0.0000    0.0000

 Populations of individual BAS functions
 ----------------------------------------
 1 H            0.2104  0.6788  0.1107  0.0000  0.0000  0.0000

 Gross Charges per Atom (Z minus electrons)
 ==========================================
            -0.0000
 Net Total: -0.00000000



 =======================================================================
 Electrostatic potential at the Nuclei due to electrons and other nuclei
 =======================================================================
  
         Atom                  Potential
         ----                  ---------
     1)   H                   0.94468022
 
 
 ========================
 No memory problems found
 ========================
 
 Maximum number of active allocate calls:         306
 
 *******************************************************************************

                             A D F   E X I T
 NORMAL TERMINATION



 =================
 Timing Statistics
 =================
  
 Total Used :                     CPU=        0.32      System=        0.02     Elapsed=        0.37

 Calls  Section                     ( Mean, Percentage )
 ---------------------------------------------------------------------------------------------------
     3  ><      ................      0.00    1.23             0.00    0.00             0.00    1.16
     1  INIT    ................      0.06   18.52             0.01   40.00             0.07   19.86
     1  GEOMET  ................      0.02    4.94             0.00   20.00             0.02    6.44
     1  INPUTA  ................      0.00    0.00             0.00    0.00             0.00    0.88
     1  MAINSY  ................      0.01    2.47             0.00   20.00             0.01    3.46
     1  SYMFIT  ................      0.00    0.00             0.00    0.00             0.00    0.42
     1  CORORT  ................      0.00    1.23             0.00    0.00             0.00    0.34
     1  SYMORB  ................      0.00    0.00             0.00    0.00             0.00    0.18
     1  CLSMAT  ................      0.00    1.23             0.00    0.00             0.00    1.34
     1  ORTHON  ................      0.00    1.23             0.00    0.00             0.00    1.29
     1  GENPT   ................      0.01    2.47             0.00    0.00             0.01    3.16
     1  PTBAS   ................      0.00    1.23             0.00    0.00             0.00    1.25
     8  FOCKY   ................      0.02   49.38             0.00   20.00             0.02   44.85
     8  FOCKTR  ................      0.00    2.47             0.00    0.00             0.00    1.08
     8  SDIIS   ................      0.00    3.70             0.00    0.00             0.00    5.49
     1  COREPS  ................      0.01    3.70             0.00    0.00             0.01    3.67
     1  POPAN   ................      0.00    1.23             0.00    0.00             0.00    1.19
     1  DEBYE   ................      0.00    1.23             0.00    0.00             0.00    0.49
     1  EXIT PROCEDURE .........      0.01    3.70             0.00    0.00             0.01    3.44


 Currently Open Files (EXIT00)
 ====================

 Unit    Access Format  Status   Type       Ident (file)
 -------------------------------------------------------
   3      SEQ    FORM   TRANSP  NORMAL      LOGFILE
                                          ( logfile )

 ***************************************************************************************************
 (LOGFILE)
 <Feb10-2023> <06:45:49>  DIRAC 2019  RunTime: Feb10-2023 06:45:49  Nodes: 1  Procs: 1
 <Feb10-2023> <06:45:49>  NORMAL TERMINATION
 <Feb10-2023> <06:45:49>  END
 <Feb10-2023> <06:45:49>  ADF 2019  RunTime: Feb10-2023 06:45:49  Nodes: 1  Procs: 1
 <Feb10-2023> <06:45:49>  Hydrogen (TZP)
 <Feb10-2023> <06:45:49>  RunType   : CREATE
 <Feb10-2023> <06:45:49>  Net Charge: 0 (Nuclei minus Electrons)
 <Feb10-2023> <06:45:49>  Symmetry  : ATOM
  Coordinates
    Atom         X           Y           Z   (Angstrom)
    1.H         0.000000    0.000000    0.000000
 <Feb10-2023> <06:45:49>  >>>> CORORT
 <Feb10-2023> <06:45:49>  >>>> CLSMAT
 <Feb10-2023> <06:45:49>  >>>> ORTHON
 <Feb10-2023> <06:45:49>  >>>> GENPT
 <Feb10-2023> <06:45:49>  Block Length=  64
 <Feb10-2023> <06:45:49>  >>>> PTBAS
 <Feb10-2023> <06:45:49>  >>>> CYCLE
 <Feb10-2023> <06:45:49>              |Error|         MaxErr       Wt(A-DIIS)
 <Feb10-2023> <06:45:49>      1      0.00000000      0.00000000
 <Feb10-2023> <06:45:49>      2      0.03153787      0.03011049
 <Feb10-2023> <06:45:49>      3      0.00861799      0.00834303    100.0
 <Feb10-2023> <06:45:49>      4      0.00173235      0.00171862      0.7
 <Feb10-2023> <06:45:49>      5      0.00004367      0.00003977      0.0
 <Feb10-2023> <06:45:49>      6      0.00000238      0.00000216      0.0
 <Feb10-2023> <06:45:49>      7      0.00000001      0.00000001      0.0
 <Feb10-2023> <06:45:49>  SCF converged
 <Feb10-2023> <06:45:49>      8      0.00000000      0.00000000      0.0
 <Feb10-2023> <06:45:49>  >>>> POPAN
 <Feb10-2023> <06:45:49>  >>>> DEBYE
 <Feb10-2023> <06:45:49>  NORMAL TERMINATION
 <Feb10-2023> <06:45:49>  END

 *******************************************************************************
 *                                                                             *
 *  -------------------------------------                                      *
 *   Amsterdam Density Functional  (ADF)         2019                          *
 *  -------------------------------------                                      *
 *                                               r74351 2019-04-25             *
 *                                                                             *
 *                                                                             *
 *                            =====================                            *
 *                            |                   |                            *
 *                            |     D I R A C     |                            *
 *                            |                   |                            *
 *                            =====================                            *
 *                                                                             *
 *                                                                             *
 *   Online information and documentation:  https://www.scm.com/support/       *
 *   E-mail:  support@scm.com   info@scm.com                                   *
 *                                                                             *
 *   Scientific publications using ADF results must be properly referenced     *
 *   See the User Manuals (or the web site) for recommended citations          *
 *   The terms and conditions of the End User License Agreement apply to       *
 *   the use of ADF, https://www.scm.com/license-terms/                        *
 *                                                                             *
 **********************  x86_64_linux_intel / intelmpi  ************************
 
 Licensed to: Dr. Carles Bo / Institute of Chemical Research of Catalonia ( (ICIQ) / Tarragona / Spain 2022-11-28 14:37:29
 SCM User ID: u7609
  
 DIRAC 2019  RunTime: Feb10-2023 06:45:49  Nodes: 1  Procs: 1

 Temporary files are created in /scratch/kid_0.1882191286

1
 PHOSPHORUS ATOM 1s CORE RELATIVISTIC, Point Nuc, A and c fro
 N J RN H ZN XION ANUC CLIGHT
 5000    7100.00000000197.36710137 15.00000000  0.00000000   30.973761  0.1370360E+03
  PH   PHI     EPS        DEL        DELRVR
  0.30  0.30     2500.00  0.00001000  0.00001000
 IDIRC  NC1  NDEBU NPRIN  IPUN IRCOR IWCOR
   1   300     0     0     0     0     1
   XALPHA      XLATTER      RNUC
  0.70000000  0.00000000  0.00000000 Point Charge
   XN   XL   XJ      XE          XZ      XDELL
  1.0  0.0  0.5    -600.000       2.000     0.00000
  2.0  0.0  0.5     -75.000       2.000     0.00000
  2.0  1.0  0.5     -70.000       2.000     0.00000
  2.0  1.0  1.5     -70.000       4.000     0.00000
  3.0  0.0  0.5     -25.000       2.000     0.00000
  3.0  1.0  0.5      -0.250       2.000     0.00000
  3.0  1.0  1.5      -0.250       1.000     0.00000
 ICORP=  0  NPCL=  0  DEMP=0.00  PEPS=0.000000
 R(1)=  0.1000000E-08 D=  0.1005080E+01 RNUC=  0.0000000E+00
 converged at cycle   47  DENSITY AVERAGING    0.3000
  MAXIMUM ERROR IN R.V(R) IS   0.93255186E-05
 Q,EY,EV,EZ,ESUM,ETOT,RHO  0.150000E+02 -0.290161E+02 -0.536820E+03 -0.814855E+03 -0.194417E+03 -0.340688E+03  0.340722E-13


 DIRAC CALCULATION
1                    PHOSPHORUS ATOM 1s CORE RELATIVISTIC, Point Nuc, A and c from libtc


 EXCHANGE COEFFICIENT=  0.7000000           TAIL CORRECTION=  0.           NUCLEAR RADIUS=  0.000E+00
0                       ORBITAL    N    L    J     ELECTRONS     EIGENVALUE                DELTA OF EIGENV.

                          1S1/2  1.0  0.0  0.5     2.000       -0.7640874E+02                 0.2597240E-06
                          2S1/2  2.0  0.0  0.5     2.000       -0.6353640E+01                 0.3482713E-07
                          2P1/2  2.0  1.0  0.5     2.000       -0.4588256E+01                 0.3010938E-07
                          2P3/2  2.0  1.0  1.5     4.000       -0.4554413E+01                 0.2993762E-07
                          3S1/2  3.0  0.0  0.5     2.000       -0.4844206E+00                 0.1693624E-07
                          3P1/2  3.0  1.0  0.5     2.000       -0.1770291E+00                 0.1234259E-07
                          3P3/2  3.0  1.0  1.5     1.000       -0.1750217E+00                 0.1224459E-07


                                        NUCLEAR CHARGE=   15.000000
                            INTEGRAL OF CHARGE DENSITY=   15.000000
                           SUM OF THE ORBITAL ENERGIES=   -194.4169
                                          TOTAL ENERGY=   -340.6884
                                        KINETIC ENERGY=    342.4034
                             NUCLEAR ATTRACTION ENERGY=   -814.8554
                             ELECTRON REPULSION ENERGY=    153.5256
                                       EXCHANGE ENERGY=    -21.7621

 *******************************************************************************

                             D I R A C   E X I T
 NORMAL TERMINATION



 =================
 Timing Statistics
 =================
  
 Total Used :                     CPU=        0.22      System=        0.00     Elapsed=        0.23

 Calls  Section                     ( Mean, Percentage )
 ---------------------------------------------------------------------------------------------------
     2  ><      ................      0.00    0.00             0.00    0.00             0.00    0.00
     1  EXIT PROCEDURE .........      0.22  100.00             0.00    0.00             0.23  100.00


 Currently Open Files (EXIT00)
 ====================

 Unit    Access Format  Status   Type       Ident (file)
 -------------------------------------------------------
   3      SEQ    FORM   TRANSP  NORMAL      LOGFILE
                                          ( logfile )
 
Create P   file=TZP-P.1s
XC
  GGA PBE
End
relativistic ZORA
Corepotentials t12.rel
End

 *******************************************************************************
 *                                                                             *
 *  -------------------------------------                                      *
 *   Amsterdam Density Functional  (ADF)         2019                          *
 *  -------------------------------------                                      *
 *                                               r74351 2019-04-25             *
 *                                                                             *
 *                                                                             *
 *                              =================                              *
 *                              |               |                              *
 *                              |     A D F     |                              *
 *                              |               |                              *
 *                              =================                              *
 *                                                                             *
 *                                                                             *
 *   Online information and documentation:  https://www.scm.com/support/       *
 *   E-mail:  support@scm.com   info@scm.com                                   *
 *                                                                             *
 *   Scientific publications using ADF results must be properly referenced     *
 *   See the User Manuals (or the web site) for recommended citations          *
 *   The terms and conditions of the End User License Agreement apply to       *
 *   the use of ADF, https://www.scm.com/license-terms/                        *
 *                                                                             *
 **********************  x86_64_linux_intel / intelmpi  ************************
 
 Licensed to: Dr. Carles Bo / Institute of Chemical Research of Catalonia ( (ICIQ) / Tarragona / Spain 2022-11-28 14:37:29
 SCM User ID: u7609
  
 ADF 2019  RunTime: Feb10-2023 06:45:50  Nodes: 1  Procs: 1

 Temporary files are created in /scratch/kid_0.247246512

 Phosphorus (TZP, 1s frozen)



 ===========================
 A T T A C H E D   F I L E S
 ===========================
  
 CREATE - Data File:    TZP-P.1s
                        Phosphorus (TZP, 1s frozen)
 Core Potentials:
         file : t12.rel



 ===============================
 M O D E L   P A R A M E T E R S
 ===============================
  
 DENSITY FUNCTIONAL POTENTIAL (scf)
    LDA:                               PW92                                    == Not Default ==
    Gradient Corrections:              PBEc PBEx                               == Not Default ==

 SPIN  (restricted / unrestr.)
    Molecule:                          Restricted                               

 OTHER ASPECTS
    Relativistic Corrections:          scalar (ZORA,MAPA)                      == Not Default ==

    Nuclear Charge Density Model:      Point Charge Nuclei                      
    Core Treatment:                    Frozen Orbital(s)                        

    Hyperfine or Zeeman Interaction:   ---                                      



 =====================================
 S Y M M E T R Y ,   E L E C T R O N S
 =====================================
  
 Symmetry: ATOM

 Irreducible Representations, including subspecies
 -------------------------------------------------
 S
 P:x  P:y  P:z
 D:z2  D:x2-y2  D:xy  D:xz  D:yz
 F:z3  F:z  F:xyz  F:z2x  F:z2y  F:x  F:y


 Configuration of Valence Electrons
 ==================================

          Occupation Numbers
          -------------------------------------------------
 S        2*2
 P        6 3
 D        0
 F        0
          -------------------------------------------------

 Total:   13

 Net Charge: 0 (Nuclei minus Electrons)

 Preset values for MO occupations will be applied through SCF cycle no. 1000000
 Thereafter, the program will assign electrons to MOs that are spatially
 similar to the occupied MOs in a "reference" cycle ("KeepOrbitals").
 The reference cycle is always the PREVIOUS cycle: it will evolve with
 the SCF procedure.



 ================================
 (Slater-type)  F U N C T I O N S  ***  (Basis and Fit)  ***
 ================================
  

 Atom Type    1  (P)
 ==============

 Valence Basis Sets:  12
 -----------------------
   1 S   12.550000
   2 S    5.600000
   2 S    4.050000
   2 P    7.450000
   2 P    4.100000
   3 S    1.300000
   3 S    1.850000
   3 S    2.650000
   3 P    0.850000
   3 P    1.300000
   3 P    2.050000
   3 D    1.900000

 Frozen Core Shells
 ------------------
    S:  1


 BAS: List of all Elementary Cartesian Basis Functions
 =====================================================

 The numbering in the list below (to the right of the function characteristics) is referred
 to in print-outs of MO eigenvectors and Mulliken populations in the BAS representation
 (as contrasted to the SFO representation).

 Notes:
 1. The functions are characterized by a polynomial prefactor (powers of x,y,z and r) and
    an exponential decay factor alpha.
 2. Since the basis sets are specific for an atom TYPE, the individual functions occur on
    all atoms of that type.
 3. The word 'Core' in the left margin signals that it is a Core Function (CF) : not a
    degree of freedom in the valence set, but only used to ensure orthogonalization of
    the other valence basis functions on the frozen Core Orbitals.


 (power of) X  Y  Z  R     Alpha  on Atom
            ==========     =====     ==========

 P                                    1
                                  ---------------------------------------------------------------------------
    Core    0  0  0  0    12.550      1
            0  0  0  1     5.600      2
            0  0  0  1     4.050      3
            1  0  0  0     7.450      4
            0  1  0  0     7.450      5
            0  0  1  0     7.450      6
            1  0  0  0     4.100      7
            0  1  0  0     4.100      8
            0  0  1  0     4.100      9
            0  0  0  2     1.300     10
            0  0  0  2     1.850     11
            0  0  0  2     2.650     12
            1  0  0  1     0.850     13
            0  1  0  1     0.850     14
            0  0  1  1     0.850     15
            1  0  0  1     1.300     16
            0  1  0  1     1.300     17
            0  0  1  1     1.300     18
            1  0  0  1     2.050     19
            0  1  0  1     2.050     20
            0  0  1  1     2.050     21
            2  0  0  0     1.900     22
            1  1  0  0     1.900     23
            1  0  1  0     1.900     24
            0  2  0  0     1.900     25
            0  1  1  0     1.900     26
            0  0  2  0     1.900     27

 Total number of charge fitting functions (nprimf)       106
 Total number of Cartesian basis functions (naos)         27
 Total number of Cartesian core functions  (ncos)          1



 BAS: List of all Elementary Cartesian Basis Functions
 =====================================================

 The numbering in the list below (to the right of the function characteristics) is referred
 to in print-outs of MO eigenvectors and Mulliken populations in the BAS representation
 (as contrasted to the SFO representation).

 Notes:
 1. The functions are characterized by a polynomial prefactor (powers of x,y,z and r) and
    an exponential decay factor alpha.
 2. Since the basis sets are specific for an atom TYPE, the individual functions occur on
    all atoms of that type.
 3. The word 'Core' in the left margin signals that it is a Core Function (CF) : not a
    degree of freedom in the valence set, but only used to ensure orthogonalization of
    the other valence basis functions on the frozen Core Orbitals.


 (power of) X  Y  Z  R     Alpha  on Atom
            ==========     =====     ==========

 P                                    1
                                  ---------------------------------------------------------------------------
    Core    0  0  0  0    12.550      1
            0  0  0  1     5.600      2
            0  0  0  1     4.050      3
            1  0  0  0     7.450      4
            0  1  0  0     7.450      5
            0  0  1  0     7.450      6
            1  0  0  0     4.100      7
            0  1  0  0     4.100      8
            0  0  1  0     4.100      9
            0  0  0  2     1.300     10
            0  0  0  2     1.850     11
            0  0  0  2     2.650     12
            1  0  0  1     0.850     13
            0  1  0  1     0.850     14
            0  0  1  1     0.850     15
            1  0  0  1     1.300     16
            0  1  0  1     1.300     17
            0  0  1  1     1.300     18
            1  0  0  1     2.050     19
            0  1  0  1     2.050     20
            0  0  1  1     2.050     21
            2  0  0  0     1.900     22
            1  1  0  0     1.900     23
            1  0  1  0     1.900     24
            0  2  0  0     1.900     25
            0  1  1  0     1.900     26
            0  0  2  0     1.900     27
1
 ***************************************************************************************************



                                              ***********************
                                              *  T E C H N I C A L  *
                                              ***********************
  



 =============================================================
 P A R A L L E L I Z A T I O N  and  V E C T O R I Z A T I O N
 =============================================================
  
 Nr of parallel processes:                                1
 Maximum vector length in NumInt loops:                 128



 =====================
 S C F   U P D A T E S
 =====================
  
 Max. nr. of cycles:                               300
 Convergence criterion:                              0.0000000100
   secondary criterion:                              0.0000000100

 Mix parameter (when DIIS does not apply):           0.2000000000
 Special mix parameter for the first cycle:          1.0000000000
 Mixed ADIIS+SDIIS will be used                  
    Max number of expansion vectors:                10
    Pure ADIIS when Max([F,P]) is above              0.1000000000
    Pure SDIIS when Max([F,P]) is below              0.0010000000
 Automatic ElectronSmearing (in case of problematic SCF convergence) disabled



 =================
 P R E C I S I O N  ***  (General: NumInt, NeglectFunctionTails, ...)  ***
 =================
  

 NumInt:           Target precision:                12.0000000000
 -------           Initial precision:               10.0000000000
                   Min. precision (optimization):   10.0000000000

 Neglect Functions:          Basis functions:        0.1000000000E-13
 ------------------          Fit functions:          0.1000000000E-13



 ===========================
 L I N E A R   S C A L I N G
 ===========================
  

 Cut-off radii density fit:                        0.1000000000E-97
 Overlap cut-off criterion AO matrix elements:     0.1000000000E-97
 Cut-offs for Coulomb potential and fitted density:0.1000000000E-97
 Cut-off criterion for Coulomb multipole terms:    0.1000000000E-97
 Progressive Convergence parameter:                 0.000000000    
1
 ***************************************************************************************************



                                            ***************************
                                            *  C O M P U T A T I O N  *
                                            ***************************
  

 Number of elements of the density matrix on this node (used, total):       378       378



 ===========================================
 Numerical Integration : Fuzzy Cells (Becke)
 ===========================================
  
 Becke grid quality: VERYGOOD       
  
 Lebedev angular grid order:             min:  13 max:  41
 Nr. of radial points:                   min:  76 max:  76

 Total nr. of points:         76
 Nr. of blocks:                1
 Block length:                76
 Nr. of dummy points:          0


 Test of Precision of the Numerical Integration Grid
 ===================================================

 Integral of the Total Core Density:                   1.99999999908170
 Relative Error:                                      -4.592E-10



 ========================
 Density Fitting (zlmFit)
 ========================
  
 ZlmFit Fit Quality: VERYGOOD       
  
 Max L-expansion:                        min:   0 max:   0
 Nr. of radial interpolation points:     min: 190 max: 190



 =====
 S C F  ***  ScaSCF  ***
 =====
  

 CYCLE    1
 SCF Error: norm([F,P])=      0.000000000000, max([F,P])=      0.000000000000
 orbitals (Q,E):
 ---------------
 S :1...5            ( 2.00   -23.0992)  ( 2.00    -9.8031)  ( 0.00    -5.2886)  ( 0.00    -3.1440)
                     ( 0.00    -1.2993)
 P :1...5            ( 6.00   -22.3278)  ( 3.00    -9.2322)  ( 0.00    -4.8937)  ( 0.00    -3.0142)
                     ( 0.00    -1.9614)
 D :1...1            ( 0.00    -6.4318)

 CYCLE    2
  SDIIS (wt  0.000):  1.0000  0.0000
 A-DIIS (wt  1.000):  0.1145  0.8855
  DIIS coefficients:  0.1145  0.8855
 SCF Error: norm([F,P])=     18.574199763001, max([F,P])=      5.729460424591
 orbitals (Q,E):
 ---------------
 S :1...3            ( 2.00    -4.5689)  ( 2.00    -0.5693)  ( 0.00    -0.0589)
 P :1...3            ( 6.00    -2.5820)  ( 3.00    -0.3376)  ( 0.00    -0.0879)
 D :1...1            ( 0.00     0.3219)

 CYCLE    3
  SDIIS (wt  0.000):  0.2387  0.7613
 A-DIIS (wt  1.000):  0.0000  1.0000
  DIIS coefficients:  0.0000  1.0000
 SCF Error: norm([F,P])=      7.892246338364, max([F,P])=      2.592954182835
 orbitals (Q,E):
 ---------------
 S :1...3            ( 2.00    -8.2146)  ( 2.00    -0.9843)  ( 0.00    -0.0433)
 P :1...3            ( 6.00    -6.5635)  ( 3.00    -0.6019)  ( 0.00    -0.0049)
 D :1...1            ( 0.00    -0.0107)

 CYCLE    4
  SDIIS (wt  0.000): -0.0871  0.2952  0.7919
 A-DIIS (wt  1.000):  0.0000  0.1757  0.8243
  DIIS coefficients:  0.0000  0.1757  0.8243
 SCF Error: norm([F,P])=      4.387176641077, max([F,P])=      1.761626650861
 orbitals (Q,E):
 ---------------
 S :1...3            ( 2.00    -5.8126)  ( 2.00    -0.3504)  ( 0.00     0.1791)
 P :1...3            ( 6.00    -3.9508)  ( 3.00    -0.0835)  ( 0.00     0.1310)
 D :1...1            ( 0.00     0.5508)

 CYCLE    5
  SDIIS (wt  0.000): -0.0109 -0.0602  0.1941  0.8770
 A-DIIS (wt  1.000):  0.0000  0.0000  0.0000  1.0000
  DIIS coefficients:  0.0000  0.0000  0.0000  1.0000
 SCF Error: norm([F,P])=      1.324345584458, max([F,P])=      0.466956153840
 orbitals (Q,E):
 ---------------
 S :1...3            ( 2.00    -6.8907)  ( 2.00    -0.7073)  ( 0.00     0.0342)
 P :1...3            ( 6.00    -5.0922)  ( 3.00    -0.3650)  ( 0.00     0.0330)
 D :1...1            ( 0.00     0.1959)

 CYCLE    6
  SDIIS (wt  0.000):  0.0000 -0.0289 -0.0346  0.4584  0.6050
 A-DIIS (wt  1.000):  0.0000  0.0000  0.0000  0.3111  0.6889
  DIIS coefficients:  0.0000  0.0000  0.0000  0.3111  0.6889
 SCF Error: norm([F,P])=      0.894656609953, max([F,P])=      0.328552344502
 orbitals (Q,E):
 ---------------
 S :1...3            ( 2.00    -6.3109)  ( 2.00    -0.4896)  ( 0.00     0.1210)
 P :1...3            ( 6.00    -4.4823)  ( 3.00    -0.1842)  ( 0.00     0.0870)
 D :1...1            ( 0.00     0.4072)

 CYCLE    7
  SDIIS (wt  0.437):  0.0003 -0.0004 -0.0106 -0.0415  0.1385  0.9137
 A-DIIS (wt  0.563):  0.0000  0.0000  0.0000  0.0000  0.0000  1.0000
  DIIS coefficients:  0.0001 -0.0002 -0.0046 -0.0181  0.0605  0.9623
 SCF Error: norm([F,P])=      0.152753231532, max([F,P])=      0.056768903175
 orbitals (Q,E):
 ---------------
 S :1...3            ( 2.00    -6.4268)  ( 2.00    -0.5264)  ( 0.00     0.1084)
 P :1...3            ( 6.00    -4.6039)  ( 3.00    -0.2126)  ( 0.00     0.0772)
 D :1...1            ( 0.00     0.3702)

 CYCLE    8
  SDIIS (wt  0.777): -0.0000 -0.0007  0.0025  0.0136 -0.0400  0.1180  0.9067
 A-DIIS (wt  0.223):  0.0000  0.0000  0.0000  0.0000  0.0000  0.0410  0.9590
  DIIS coefficients: -0.0000 -0.0005  0.0019  0.0105 -0.0311  0.1008  0.9184
 SCF Error: norm([F,P])=      0.062117061218, max([F,P])=      0.023065151090
 orbitals (Q,E):
 ---------------
 S :1...3            ( 2.00    -6.3871)  ( 2.00    -0.5116)  ( 0.00     0.1144)
 P :1...3            ( 6.00    -4.5623)  ( 3.00    -0.2008)  ( 0.00     0.0809)
 D :1...1            ( 0.00     0.3849)

 CYCLE    9
  SDIIS (wt  0.976):  0.0000  0.0000 -0.0001 -0.0000 -0.0006  0.0067  0.1535  0.8406
 A-DIIS (wt  0.024):  0.0000  0.0000  0.0000  0.0000  0.0000  0.0000  0.0000  1.0000
  DIIS coefficients:  0.0000  0.0000 -0.0001 -0.0000 -0.0006  0.0065  0.1498  0.8445
 SCF Error: norm([F,P])=      0.008957667695, max([F,P])=      0.003406470825
 orbitals (Q,E):
 ---------------
 S :1...3            ( 2.00    -6.3923)  ( 2.00    -0.5136)  ( 0.00     0.1136)
 P :1...3            ( 6.00    -4.5677)  ( 3.00    -0.2024)  ( 0.00     0.0804)
 D :1...1            ( 0.00     0.3830)

 CYCLE   10
  SDIIS (wt  1.000): -0.0000  0.0000 -0.0000 -0.0000  0.0000  0.0002  0.0031  0.0372  0.9595
  DIIS coefficients: -0.0000  0.0000 -0.0000 -0.0000  0.0000  0.0002  0.0031  0.0372  0.9595
 SCF Error: norm([F,P])=      0.000163653333, max([F,P])=      0.000063717608
 orbitals (Q,E):
 ---------------
 S :1...3            ( 2.00    -6.3922)  ( 2.00    -0.5136)  ( 0.00     0.1136)
 P :1...3            ( 6.00    -4.5676)  ( 3.00    -0.2024)  ( 0.00     0.0804)
 D :1...1            ( 0.00     0.3830)

 CYCLE   11
  SDIIS (wt  1.000):  0.0000  0.0000 -0.0000 -0.0002 -0.0016 -0.0226  1.0244
  DIIS coefficients:  0.0000  0.0000 -0.0000 -0.0002 -0.0016 -0.0226  1.0244
 SCF Error: norm([F,P])=      0.000000175567, max([F,P])=      0.000000090743
 orbitals (Q,E):
 ---------------
 S :1...3            ( 2.00    -6.3922)  ( 2.00    -0.5136)  ( 0.00     0.1136)
 P :1...3            ( 6.00    -4.5676)  ( 3.00    -0.2024)  ( 0.00     0.0804)
 D :1...1            ( 0.00     0.3830)

 CYCLE   12
  SDIIS (wt  1.000): -0.0000 -0.0000 -0.0005 -0.0247  1.0252
  DIIS coefficients: -0.0000 -0.0000 -0.0005 -0.0247  1.0252
 SCF Error: norm([F,P])=      0.000000002285, max([F,P])=      0.000000001028
 orbitals (Q,E):
 ---------------
 S :1...3            ( 2.00    -6.3922)  ( 2.00    -0.5136)  ( 0.00     0.1136)
 P :1...3            ( 6.00    -4.5676)  ( 3.00    -0.2024)  ( 0.00     0.0804)
 D :1...1            ( 0.00     0.3830)

 SCF CONVERGED

 CYCLE   13
1
 ***************************************************************************************************



                                                *******************
                                                *  R E S U L T S  *
                                                *******************
  
 *** Using FIT density in Focky
  SDIIS (wt  1.000):  0.0000  0.0017  0.0326  0.9657
  DIIS coefficients:  0.0000  0.0017  0.0326  0.9657
 SCF Error: norm([F,P])=      0.000000000342, max([F,P])=      0.000000000172

 Scaled ZORA Orbital Energies, per Irrep and Spin:
 =================================================
                        Occup              E (au)              E (eV)       Diff (eV) with prev. cycle
                        -----      --------------------        ------       --------------------------
 S
               1        2.000     -0.63922369009056E+01      -173.942               8.75E-09
               2        2.000     -0.51357095789531E+00       -13.975               6.90E-09
               3        0.000      0.11360419341918E+00         3.091
               4        0.000      0.13218598554508E+01        35.970
               5        0.000      0.10430275582036E+02       283.822
 P
               1        6.000     -0.45676340295409E+01      -124.292               8.74E-09
               2        3.000     -0.20235270966723E+00        -5.506               5.88E-09
               3        0.000      0.80400995303665E-01         2.188
               4        0.000      0.71612464912880E+00        19.487
               5        0.000      0.95392466931961E+01       259.576
 D
               1        0.000      0.38299165710671E+00        10.422


 Partially Occupied:
               2 P                -0.20235270966723E+00
  
 HOMO :        2 S                -0.51357095789531E+00
 LUMO :        3 P                 0.80400995303665E-01
  


 Orbital Energies, all Irreps
 ========================================

 Irrep        no.  (spin)   Occup              E (au)                E (eV)
 ---------------------------------------------------------------------------
 S             1             2.00       -0.63922369009056E+01      -173.9416
 P             1             6.00       -0.45676340295409E+01      -124.2916
 S             2             2.00       -0.51357095789531E+00       -13.9750
 P             2             3.00       -0.20235270966723E+00        -5.5063
 P             3             0.00        0.80400995303665E-01         2.1878
 S             3             0.00        0.11360419341918E+00         3.0913
 D             1             0.00        0.38299165710671E+00        10.4217
 P             4             0.00        0.71612464912880E+00        19.4867
 S             4             0.00        0.13218598554508E+01        35.9696
 P             5             0.00        0.95392466931961E+01       259.5761
 S             5             0.00        0.10430275582036E+02       283.8222


 Scaled ZORA Orbital Energies of the Core Orbitals:
 ==================================================

 (Note that the atoms are grouped by atomtype, see the labels, and may hence NOT be in input order)

 AtomType  Orbital  Atom                   E (au)                        E (eV)
 --------  -------  ----           --------------------        ----------------
 P           1S        1          -0.76588588395026E+02               -2084.082



 =======================================
 M U L L I K E N   P O P U L A T I O N S
 =======================================
  
 The survey below gives for each atom:
 a) the total charge (Z minus electrons)
 b) the net spin polarization (nr of electrons spin-A minus spin-B)
 c) for each spin the atomic electron valence density (integrated) per L-value.

 Atom              Charge    Spin density          S         P         D         F
 ----              ------    ------------       ------    ------    ------    ------
 1 P              -0.0000                       4.0000    9.0000    0.0000    0.0000

 Populations of individual BAS functions
 ----------------------------------------
 1 P           -0.0481  1.4990  0.5077  0.7973  0.7973  0.7973  1.2052  1.2052  1.2052  0.3372
                1.0986  0.6057  0.1369  0.1369  0.1369  0.4144  0.4144  0.4144  0.4462  0.4462
                0.4462  0.0000  0.0000  0.0000  0.0000  0.0000  0.0000

 Gross Charges per Atom (Z minus electrons)
 ==========================================
            -0.0000
 Net Total: -0.00000000



 =======================================================================
 Electrostatic potential at the Nuclei due to electrons and other nuclei
 =======================================================================
  
         Atom                  Potential
         ----                  ---------
     1)   P                  54.30955117
 
 
 ========================
 No memory problems found
 ========================
 
 Maximum number of active allocate calls:         389
 
 *******************************************************************************

                             A D F   E X I T
 NORMAL TERMINATION



 =================
 Timing Statistics
 =================
  
 Total Used :                     CPU=        0.54      System=        0.02     Elapsed=        0.60

 Calls  Section                     ( Mean, Percentage )
 ---------------------------------------------------------------------------------------------------
     3  ><      ................      0.00    0.74             0.00    0.00             0.00    0.74
     1  INIT    ................      0.07   12.50             0.00   20.00             0.07   12.19
     1  GEOMET  ................      0.01    1.47             0.01   40.00             0.02    3.98
     1  INPUTA  ................      0.00    0.74             0.00    0.00             0.00    0.57
     1  MAINSY  ................      0.01    1.47             0.00    0.00             0.01    2.42
     1  SYMFIT  ................      0.00    0.00             0.00    0.00             0.00    0.27
     1  CORORT  ................      0.00    0.74             0.00    0.00             0.00    0.25
     1  SYMORB  ................      0.00    0.00             0.00    0.00             0.00    0.14
     1  CLSMAT  ................      0.00    0.74             0.00    0.00             0.01    0.89
     1  ORTHON  ................      0.00    0.74             0.00    0.00             0.01    0.92
     1  GENPT   ................      0.02    2.94             0.00    0.00             0.02    2.82
     1  PTBAS   ................      0.01    1.47             0.00    0.00             0.01    0.86
    13  FOCKY   ................      0.03   61.76             0.00   40.00             0.03   59.51
    13  FOCKTR  ................      0.00    1.47             0.00    0.00             0.00    1.34
    13  SDIIS   ................      0.00    5.88             0.00    0.00             0.00    5.91
     1  COREPS  ................      0.02    3.68             0.00    0.00             0.02    3.73
     1  POPAN   ................      0.00    0.74             0.00    0.00             0.01    0.85
     1  DEBYE   ................      0.00    0.74             0.00    0.00             0.00    0.32
     1  EXIT PROCEDURE .........      0.01    2.21             0.00    0.00             0.01    2.29


 Currently Open Files (EXIT00)
 ====================

 Unit    Access Format  Status   Type       Ident (file)
 -------------------------------------------------------
   3      SEQ    FORM   TRANSP  NORMAL      LOGFILE
                                          ( logfile )

 ***************************************************************************************************
 (LOGFILE)
 <Feb10-2023> <06:45:49>  DIRAC 2019  RunTime: Feb10-2023 06:45:49  Nodes: 1  Procs: 1
 <Feb10-2023> <06:45:49>  NORMAL TERMINATION
 <Feb10-2023> <06:45:49>  END
 <Feb10-2023> <06:45:49>  ADF 2019  RunTime: Feb10-2023 06:45:49  Nodes: 1  Procs: 1
 <Feb10-2023> <06:45:49>  Hydrogen (TZP)
 <Feb10-2023> <06:45:49>  RunType   : CREATE
 <Feb10-2023> <06:45:49>  Net Charge: 0 (Nuclei minus Electrons)
 <Feb10-2023> <06:45:49>  Symmetry  : ATOM
  Coordinates
    Atom         X           Y           Z   (Angstrom)
    1.H         0.000000    0.000000    0.000000
 <Feb10-2023> <06:45:49>  >>>> CORORT
 <Feb10-2023> <06:45:49>  >>>> CLSMAT
 <Feb10-2023> <06:45:49>  >>>> ORTHON
 <Feb10-2023> <06:45:49>  >>>> GENPT
 <Feb10-2023> <06:45:49>  Block Length=  64
 <Feb10-2023> <06:45:49>  >>>> PTBAS
 <Feb10-2023> <06:45:49>  >>>> CYCLE
 <Feb10-2023> <06:45:49>              |Error|         MaxErr       Wt(A-DIIS)
 <Feb10-2023> <06:45:49>      1      0.00000000      0.00000000
 <Feb10-2023> <06:45:49>      2      0.03153787      0.03011049
 <Feb10-2023> <06:45:49>      3      0.00861799      0.00834303    100.0
 <Feb10-2023> <06:45:49>      4      0.00173235      0.00171862      0.7
 <Feb10-2023> <06:45:49>      5      0.00004367      0.00003977      0.0
 <Feb10-2023> <06:45:49>      6      0.00000238      0.00000216      0.0
 <Feb10-2023> <06:45:49>      7      0.00000001      0.00000001      0.0
 <Feb10-2023> <06:45:49>  SCF converged
 <Feb10-2023> <06:45:49>      8      0.00000000      0.00000000      0.0
 <Feb10-2023> <06:45:49>  >>>> POPAN
 <Feb10-2023> <06:45:49>  >>>> DEBYE
 <Feb10-2023> <06:45:49>  NORMAL TERMINATION
 <Feb10-2023> <06:45:49>  END
 <Feb10-2023> <06:45:49>  DIRAC 2019  RunTime: Feb10-2023 06:45:49  Nodes: 1  Procs: 1
 <Feb10-2023> <06:45:50>  NORMAL TERMINATION
 <Feb10-2023> <06:45:50>  END
 <Feb10-2023> <06:45:50>  ADF 2019  RunTime: Feb10-2023 06:45:50  Nodes: 1  Procs: 1
 <Feb10-2023> <06:45:50>  Phosphorus (TZP, 1s frozen)
 <Feb10-2023> <06:45:50>  RunType   : CREATE
 <Feb10-2023> <06:45:50>  Net Charge: 0 (Nuclei minus Electrons)
 <Feb10-2023> <06:45:50>  Symmetry  : ATOM
  Coordinates
    Atom         X           Y           Z   (Angstrom)
    1.P         0.000000    0.000000    0.000000
 <Feb10-2023> <06:45:50>  >>>> CORORT
 <Feb10-2023> <06:45:50>  >>>> CLSMAT
 <Feb10-2023> <06:45:50>  >>>> ORTHON
 <Feb10-2023> <06:45:50>  >>>> GENPT
 <Feb10-2023> <06:45:50>  Block Length=  76
 <Feb10-2023> <06:45:50>  >>>> PTBAS
 <Feb10-2023> <06:45:50>  >>>> CYCLE
 <Feb10-2023> <06:45:50>              |Error|         MaxErr       Wt(A-DIIS)
 <Feb10-2023> <06:45:50>      1      0.00000000      0.00000000
 <Feb10-2023> <06:45:50>      2     18.57419976      5.72946042    100.0
 <Feb10-2023> <06:45:50>      3      7.89224634      2.59295418    100.0
 <Feb10-2023> <06:45:50>      4      4.38717664      1.76162665    100.0
 <Feb10-2023> <06:45:50>      5      1.32434558      0.46695615    100.0
 <Feb10-2023> <06:45:50>      6      0.89465661      0.32855234    100.0
 <Feb10-2023> <06:45:50>      7      0.15275323      0.05676890     56.3
 <Feb10-2023> <06:45:50>      8      0.06211706      0.02306515     22.3
 <Feb10-2023> <06:45:50>      9      0.00895767      0.00340647      2.4
 <Feb10-2023> <06:45:50>     10      0.00016365      0.00006372      0.0
 <Feb10-2023> <06:45:50>     11      0.00000018      0.00000009      0.0
 <Feb10-2023> <06:45:50>     12      0.00000000      0.00000000      0.0
 <Feb10-2023> <06:45:50>  SCF converged
 <Feb10-2023> <06:45:50>     13      0.00000000      0.00000000      0.0
 <Feb10-2023> <06:45:50>  >>>> POPAN
 <Feb10-2023> <06:45:50>  >>>> DEBYE
 <Feb10-2023> <06:45:50>  NORMAL TERMINATION
 <Feb10-2023> <06:45:50>  END

 *******************************************************************************
 *                                                                             *
 *  -------------------------------------                                      *
 *   Amsterdam Density Functional  (ADF)         2019                          *
 *  -------------------------------------                                      *
 *                                               r74351 2019-04-25             *
 *                                                                             *
 *                                                                             *
 *                            =====================                            *
 *                            |                   |                            *
 *                            |     D I R A C     |                            *
 *                            |                   |                            *
 *                            =====================                            *
 *                                                                             *
 *                                                                             *
 *   Online information and documentation:  https://www.scm.com/support/       *
 *   E-mail:  support@scm.com   info@scm.com                                   *
 *                                                                             *
 *   Scientific publications using ADF results must be properly referenced     *
 *   See the User Manuals (or the web site) for recommended citations          *
 *   The terms and conditions of the End User License Agreement apply to       *
 *   the use of ADF, https://www.scm.com/license-terms/                        *
 *                                                                             *
 **********************  x86_64_linux_intel / intelmpi  ************************
 
 Licensed to: Dr. Carles Bo / Institute of Chemical Research of Catalonia ( (ICIQ) / Tarragona / Spain 2022-11-28 14:37:29
 SCM User ID: u7609
  
 DIRAC 2019  RunTime: Feb10-2023 06:45:50  Nodes: 1  Procs: 1

 Temporary files are created in /scratch/kid_0.1644532646

1
 OXYGEN ATOM 1s CORE RELATIVISTIC, Point Nuc, A and c from li
 N J RN H ZN XION ANUC CLIGHT
 5000    4100.00000000197.36710137  8.00000000  0.00000000   15.994914  0.1370360E+03
  PH   PHI     EPS        DEL        DELRVR
  0.30  0.30     2500.00  0.00001000  0.00001000
 IDIRC  NC1  NDEBU NPRIN  IPUN IRCOR IWCOR
   1   300     0     0     0     0     1
   XALPHA      XLATTER      RNUC
  0.70000000  0.00000000  0.00000000 Point Charge
   XN   XL   XJ      XE          XZ      XDELL
  1.0  0.0  0.5      -5.000       2.000     0.00000
  2.0  0.0  0.5      -1.000       2.000     0.00000
  2.0  1.0  0.5      -1.000       2.000     0.00000
  2.0  1.0  1.5      -1.000       2.000     0.00000
 ICORP=  0  NPCL=  0  DEMP=0.00  PEPS=0.000000
 R(1)=  0.1000000E-08 D=  0.1005080E+01 RNUC=  0.0000000E+00
 converged at cycle   28  DENSITY AVERAGING    0.2400
  MAXIMUM ERROR IN R.V(R) IS   0.81125670E-05
 Q,EY,EV,EZ,ESUM,ETOT,RHO  0.800000E+01 -0.101247E+02 -0.114961E+03 -0.177573E+03 -0.405053E+02 -0.743427E+02  0.414766E-14


 DIRAC CALCULATION
1                    OXYGEN ATOM 1s CORE RELATIVISTIC, Point Nuc, A and c from libtc


 EXCHANGE COEFFICIENT=  0.7000000           TAIL CORRECTION=  0.           NUCLEAR RADIUS=  0.000E+00
0                       ORBITAL    N    L    J     ELECTRONS     EIGENVALUE                DELTA OF EIGENV.

                          1S1/2  1.0  0.0  0.5     2.000       -0.1880014E+02                 0.7264358E-06
                          2S1/2  2.0  0.0  0.5     2.000       -0.8412236E+00                 0.5932752E-05
                          2P1/2  2.0  1.0  0.5     2.000       -0.3063203E+00                 0.5998471E-05
                          2P3/2  2.0  1.0  1.5     2.000       -0.3049609E+00                 0.5986971E-05


                                        NUCLEAR CHARGE=    8.000000
                            INTEGRAL OF CHARGE DENSITY=    8.000000
                           SUM OF THE ORBITAL ENERGIES=    -40.5053
                                          TOTAL ENERGY=    -74.3427
                                        KINETIC ENERGY=     74.4552
                             NUCLEAR ATTRACTION ENERGY=   -177.5730
                             ELECTRON REPULSION ENERGY=     36.3686
                                       EXCHANGE ENERGY=     -7.5935

 *******************************************************************************

                             D I R A C   E X I T
 NORMAL TERMINATION



 =================
 Timing Statistics
 =================
  
 Total Used :                     CPU=        0.10      System=        0.00     Elapsed=        0.11

 Calls  Section                     ( Mean, Percentage )
 ---------------------------------------------------------------------------------------------------
     2  ><      ................      0.00    0.00             0.00    0.00             0.00    0.01
     1  EXIT PROCEDURE .........      0.10  100.00             0.00    0.00             0.11   99.99


 Currently Open Files (EXIT00)
 ====================

 Unit    Access Format  Status   Type       Ident (file)
 -------------------------------------------------------
   3      SEQ    FORM   TRANSP  NORMAL      LOGFILE
                                          ( logfile )
 
Create O   file=TZP-O.1s
XC
  GGA PBE
End
relativistic ZORA
Corepotentials t12.rel
End

 *******************************************************************************
 *                                                                             *
 *  -------------------------------------                                      *
 *   Amsterdam Density Functional  (ADF)         2019                          *
 *  -------------------------------------                                      *
 *                                               r74351 2019-04-25             *
 *                                                                             *
 *                                                                             *
 *                              =================                              *
 *                              |               |                              *
 *                              |     A D F     |                              *
 *                              |               |                              *
 *                              =================                              *
 *                                                                             *
 *                                                                             *
 *   Online information and documentation:  https://www.scm.com/support/       *
 *   E-mail:  support@scm.com   info@scm.com                                   *
 *                                                                             *
 *   Scientific publications using ADF results must be properly referenced     *
 *   See the User Manuals (or the web site) for recommended citations          *
 *   The terms and conditions of the End User License Agreement apply to       *
 *   the use of ADF, https://www.scm.com/license-terms/                        *
 *                                                                             *
 **********************  x86_64_linux_intel / intelmpi  ************************
 
 Licensed to: Dr. Carles Bo / Institute of Chemical Research of Catalonia ( (ICIQ) / Tarragona / Spain 2022-11-28 14:37:29
 SCM User ID: u7609
  
 ADF 2019  RunTime: Feb10-2023 06:45:51  Nodes: 1  Procs: 1

 Temporary files are created in /scratch/kid_0.552704229

 Oxygen (TZP, 1s frozen)



 ===========================
 A T T A C H E D   F I L E S
 ===========================
  
 CREATE - Data File:    TZP-O.1s
                        Oxygen (TZP, 1s frozen)
 Core Potentials:
         file : t12.rel



 ===============================
 M O D E L   P A R A M E T E R S
 ===============================
  
 DENSITY FUNCTIONAL POTENTIAL (scf)
    LDA:                               PW92                                    == Not Default ==
    Gradient Corrections:              PBEc PBEx                               == Not Default ==

 SPIN  (restricted / unrestr.)
    Molecule:                          Restricted                               

 OTHER ASPECTS
    Relativistic Corrections:          scalar (ZORA,MAPA)                      == Not Default ==

    Nuclear Charge Density Model:      Point Charge Nuclei                      
    Core Treatment:                    Frozen Orbital(s)                        

    Hyperfine or Zeeman Interaction:   ---                                      



 =====================================
 S Y M M E T R Y ,   E L E C T R O N S
 =====================================
  
 Symmetry: ATOM

 Irreducible Representations, including subspecies
 -------------------------------------------------
 S
 P:x  P:y  P:z
 D:z2  D:x2-y2  D:xy  D:xz  D:yz
 F:z3  F:z  F:xyz  F:z2x  F:z2y  F:x  F:y


 Configuration of Valence Electrons
 ==================================

          Occupation Numbers
          -------------------------------------------------
 S        2
 P        4
 D        0
 F        0
          -------------------------------------------------

 Total:   6

 Net Charge: 0 (Nuclei minus Electrons)

 Preset values for MO occupations will be applied through SCF cycle no. 1000000
 Thereafter, the program will assign electrons to MOs that are spatially
 similar to the occupied MOs in a "reference" cycle ("KeepOrbitals").
 The reference cycle is always the PREVIOUS cycle: it will evolve with
 the SCF procedure.



 ================================
 (Slater-type)  F U N C T I O N S  ***  (Basis and Fit)  ***
 ================================
  

 Atom Type    1  (O)
 ==============

 Valence Basis Sets:   8
 -----------------------
   1 S    7.360000
   2 S    1.720000
   2 S    2.880000
   2 S    7.580000
   2 P    1.120000
   2 P    2.080000
   2 P    4.080000
   3 D    2.000000

 Frozen Core Shells
 ------------------
    S:  1


 BAS: List of all Elementary Cartesian Basis Functions
 =====================================================

 The numbering in the list below (to the right of the function characteristics) is referred
 to in print-outs of MO eigenvectors and Mulliken populations in the BAS representation
 (as contrasted to the SFO representation).

 Notes:
 1. The functions are characterized by a polynomial prefactor (powers of x,y,z and r) and
    an exponential decay factor alpha.
 2. Since the basis sets are specific for an atom TYPE, the individual functions occur on
    all atoms of that type.
 3. The word 'Core' in the left margin signals that it is a Core Function (CF) : not a
    degree of freedom in the valence set, but only used to ensure orthogonalization of
    the other valence basis functions on the frozen Core Orbitals.


 (power of) X  Y  Z  R     Alpha  on Atom
            ==========     =====     ==========

 O                                    1
                                  ---------------------------------------------------------------------------
    Core    0  0  0  0     7.360      1
            0  0  0  1     1.720      2
            0  0  0  1     2.880      3
            0  0  0  1     7.580      4
            1  0  0  0     1.120      5
            0  1  0  0     1.120      6
            0  0  1  0     1.120      7
            1  0  0  0     2.080      8
            0  1  0  0     2.080      9
            0  0  1  0     2.080     10
            1  0  0  0     4.080     11
            0  1  0  0     4.080     12
            0  0  1  0     4.080     13
            2  0  0  0     2.000     14
            1  1  0  0     2.000     15
            1  0  1  0     2.000     16
            0  2  0  0     2.000     17
            0  1  1  0     2.000     18
            0  0  2  0     2.000     19

 Total number of charge fitting functions (nprimf)        82
 Total number of Cartesian basis functions (naos)         19
 Total number of Cartesian core functions  (ncos)          1



 BAS: List of all Elementary Cartesian Basis Functions
 =====================================================

 The numbering in the list below (to the right of the function characteristics) is referred
 to in print-outs of MO eigenvectors and Mulliken populations in the BAS representation
 (as contrasted to the SFO representation).

 Notes:
 1. The functions are characterized by a polynomial prefactor (powers of x,y,z and r) and
    an exponential decay factor alpha.
 2. Since the basis sets are specific for an atom TYPE, the individual functions occur on
    all atoms of that type.
 3. The word 'Core' in the left margin signals that it is a Core Function (CF) : not a
    degree of freedom in the valence set, but only used to ensure orthogonalization of
    the other valence basis functions on the frozen Core Orbitals.


 (power of) X  Y  Z  R     Alpha  on Atom
            ==========     =====     ==========

 O                                    1
                                  ---------------------------------------------------------------------------
    Core    0  0  0  0     7.360      1
            0  0  0  1     1.720      2
            0  0  0  1     2.880      3
            0  0  0  1     7.580      4
            1  0  0  0     1.120      5
            0  1  0  0     1.120      6
            0  0  1  0     1.120      7
            1  0  0  0     2.080      8
            0  1  0  0     2.080      9
            0  0  1  0     2.080     10
            1  0  0  0     4.080     11
            0  1  0  0     4.080     12
            0  0  1  0     4.080     13
            2  0  0  0     2.000     14
            1  1  0  0     2.000     15
            1  0  1  0     2.000     16
            0  2  0  0     2.000     17
            0  1  1  0     2.000     18
            0  0  2  0     2.000     19
1
 ***************************************************************************************************



                                              ***********************
                                              *  T E C H N I C A L  *
                                              ***********************
  



 =============================================================
 P A R A L L E L I Z A T I O N  and  V E C T O R I Z A T I O N
 =============================================================
  
 Nr of parallel processes:                                1
 Maximum vector length in NumInt loops:                 128



 =====================
 S C F   U P D A T E S
 =====================
  
 Max. nr. of cycles:                               300
 Convergence criterion:                              0.0000000100
   secondary criterion:                              0.0000000100

 Mix parameter (when DIIS does not apply):           0.2000000000
 Special mix parameter for the first cycle:          1.0000000000
 Mixed ADIIS+SDIIS will be used                  
    Max number of expansion vectors:                10
    Pure ADIIS when Max([F,P]) is above              0.1000000000
    Pure SDIIS when Max([F,P]) is below              0.0010000000
 Automatic ElectronSmearing (in case of problematic SCF convergence) disabled



 =================
 P R E C I S I O N  ***  (General: NumInt, NeglectFunctionTails, ...)  ***
 =================
  

 NumInt:           Target precision:                12.0000000000
 -------           Initial precision:               10.0000000000
                   Min. precision (optimization):   10.0000000000

 Neglect Functions:          Basis functions:        0.1000000000E-13
 ------------------          Fit functions:          0.1000000000E-13



 ===========================
 L I N E A R   S C A L I N G
 ===========================
  

 Cut-off radii density fit:                        0.1000000000E-97
 Overlap cut-off criterion AO matrix elements:     0.1000000000E-97
 Cut-offs for Coulomb potential and fitted density:0.1000000000E-97
 Cut-off criterion for Coulomb multipole terms:    0.1000000000E-97
 Progressive Convergence parameter:                 0.000000000    
1
 ***************************************************************************************************



                                            ***************************
                                            *  C O M P U T A T I O N  *
                                            ***************************
  

 Number of elements of the density matrix on this node (used, total):       190       190



 ===========================================
 Numerical Integration : Fuzzy Cells (Becke)
 ===========================================
  
 Becke grid quality: VERYGOOD       
  
 Lebedev angular grid order:             min:  13 max:  41
 Nr. of radial points:                   min:  68 max:  68

 Total nr. of points:         68
 Nr. of blocks:                1
 Block length:                68
 Nr. of dummy points:          0


 Test of Precision of the Numerical Integration Grid
 ===================================================

 Integral of the Total Core Density:                   1.99999999865610
 Relative Error:                                      -6.720E-10



 ========================
 Density Fitting (zlmFit)
 ========================
  
 ZlmFit Fit Quality: VERYGOOD       
  
 Max L-expansion:                        min:   0 max:   0
 Nr. of radial interpolation points:     min: 140 max: 140



 =====
 S C F  ***  ScaSCF  ***
 =====
  

 CYCLE    1
 SCF Error: norm([F,P])=      0.000000000000, max([F,P])=      0.000000000000
 orbitals (Q,E):
 ---------------
[...]
 <Feb10-2023> <06:46:49>  gradient rms                        0.00263863
 <Feb10-2023> <06:46:49>  cart. step max                      0.01735238     0.01000000    F
 <Feb10-2023> <06:46:49>  cart. step rms                      0.00850036     0.00666667    F
  Coordinates in Geometry Cycle 13
    Atom         X           Y           Z   (Angstrom)
    1.P        -0.439484    0.120974    1.016537
    2.O         0.213658    1.606067    1.363056
    3.O         0.589004   -0.711400    0.277369
    4.O        -1.109359   -0.347013    2.284938
    5.O        -1.669678    0.506388   -0.031480
    6.H         0.965759    1.757607    0.755895
    7.H        -1.332915    0.391345   -0.942829
 <Feb10-2023> <06:46:49>  >>>> CORORT
 <Feb10-2023> <06:46:49>  >>>> CLSMAT
 <Feb10-2023> <06:46:49>  >>>> ORTHON
 <Feb10-2023> <06:46:49>  >>>> GENPT
 <Feb10-2023> <06:46:49>  Block Length= 128
 <Feb10-2023> <06:46:49>  >>>> PTBAS
 <Feb10-2023> <06:46:49>  combining surface points...
 <Feb10-2023> <06:46:49>  combining surface points...
 <Feb10-2023> <06:46:49>  >>>> CYCLE
 <Feb10-2023> <06:46:50>              |Error|         MaxErr       Wt(A-DIIS)
 <Feb10-2023> <06:46:50>      1      0.11045384      0.01865746
 <Feb10-2023> <06:46:50>      2      0.18592390      0.03344577    100.0
 <Feb10-2023> <06:46:50>      3      0.08544240      0.01552801    100.0
 <Feb10-2023> <06:46:50>      4      0.07860448      0.01666992     15.8
 <Feb10-2023> <06:46:51>      5      0.04720819      0.01300817     12.1
 <Feb10-2023> <06:46:51>      6      0.02179588      0.00517554      4.2
 <Feb10-2023> <06:46:51>      7      0.00516419      0.00119330      0.2
 <Feb10-2023> <06:46:51>      8      0.00232253      0.00054790      0.0
 <Feb10-2023> <06:46:52>      9      0.00051976      0.00010460      0.0
 <Feb10-2023> <06:46:52>     10      0.00002731      0.00000520      0.0
 <Feb10-2023> <06:46:52>     11      0.00000558      0.00000112      0.0
 <Feb10-2023> <06:46:52>     12      0.00000046      0.00000008      0.0
 <Feb10-2023> <06:46:53>  SCF converged
 <Feb10-2023> <06:46:53>     13      0.00000048      0.00000011      0.0
 <Feb10-2023> <06:46:53>  >>>> TOTEN
 <Feb10-2023> <06:46:53>  >>>> POPAN
 <Feb10-2023> <06:46:53>  >>>> DEBYE
 <Feb10-2023> <06:46:53>  >>>> ENGRAD
 <Feb10-2023> <06:46:53>  current energy                               -1.72031808 Hartree
 <Feb10-2023> <06:46:53>  energy change                      -0.00020461     0.00100000    T
 <Feb10-2023> <06:46:53>  constrained gradient max            0.00180236     0.00100000    F
 <Feb10-2023> <06:46:53>  constrained gradient rms            0.00097752     0.00066667    F
 <Feb10-2023> <06:46:53>  gradient max                        0.00180236
 <Feb10-2023> <06:46:53>  gradient rms                        0.00097752
 <Feb10-2023> <06:46:53>  cart. step max                      0.05323417     0.01000000    F
 <Feb10-2023> <06:46:53>  cart. step rms                      0.01610641     0.00666667    F
  Coordinates in Geometry Cycle 14
    Atom         X           Y           Z   (Angstrom)
    1.P        -0.441277    0.113640    1.017687
    2.O         0.205490    1.606113    1.347399
    3.O         0.598500   -0.714769    0.289631
    4.O        -1.108711   -0.340619    2.292288
    5.O        -1.679622    0.468139   -0.029852
    6.H         0.964470    1.746885    0.746586
    7.H        -1.321866    0.444580   -0.940254
 <Feb10-2023> <06:46:53>  >>>> CORORT
 <Feb10-2023> <06:46:53>  >>>> CLSMAT
 <Feb10-2023> <06:46:53>  >>>> ORTHON
 <Feb10-2023> <06:46:53>  >>>> GENPT
 <Feb10-2023> <06:46:53>  Block Length= 128
 <Feb10-2023> <06:46:53>  >>>> PTBAS
 <Feb10-2023> <06:46:53>  combining surface points...
 <Feb10-2023> <06:46:53>  combining surface points...
 <Feb10-2023> <06:46:53>  combining surface points...
 <Feb10-2023> <06:46:53>  >>>> CYCLE
 <Feb10-2023> <06:46:54>              |Error|         MaxErr       Wt(A-DIIS)
 <Feb10-2023> <06:46:54>      1      0.12755973      0.03195216
 <Feb10-2023> <06:46:54>      2      0.19072473      0.03495940    100.0
 <Feb10-2023> <06:46:55>      3      0.09095447      0.02454752    100.0
 <Feb10-2023> <06:46:55>      4      0.11581633      0.03493309    100.0
 <Feb10-2023> <06:46:55>      5      0.12120050      0.03916546    100.0
 <Feb10-2023> <06:46:55>      6      0.01159125      0.00240724      1.4
 <Feb10-2023> <06:46:56>      7      0.00455147      0.00087632      0.0
 <Feb10-2023> <06:46:56>      8      0.00219908      0.00050993      0.0
 <Feb10-2023> <06:46:56>      9      0.00069800      0.00017560      0.0
 <Feb10-2023> <06:46:57>     10      0.00004169      0.00000669      0.0
 <Feb10-2023> <06:46:57>     11      0.00001407      0.00000359      0.0
 <Feb10-2023> <06:46:57>     12      0.00000777      0.00000200      0.0
 <Feb10-2023> <06:46:57>     13      0.00000055      0.00000013      0.0
 <Feb10-2023> <06:46:57>  SCF converged
 <Feb10-2023> <06:46:57>     14      0.00000014      0.00000003      0.0
 <Feb10-2023> <06:46:58>  >>>> TOTEN
 <Feb10-2023> <06:46:58>  >>>> POPAN
 <Feb10-2023> <06:46:58>  >>>> DEBYE
 <Feb10-2023> <06:46:58>  >>>> ENGRAD
 <Feb10-2023> <06:46:58>  current energy                               -1.72040505 Hartree
 <Feb10-2023> <06:46:58>  energy change                      -0.00008696     0.00100000    T
 <Feb10-2023> <06:46:58>  constrained gradient max            0.00123381     0.00100000    F
 <Feb10-2023> <06:46:58>  constrained gradient rms            0.00059362     0.00066667    T
 <Feb10-2023> <06:46:58>  gradient max                        0.00123381
 <Feb10-2023> <06:46:58>  gradient rms                        0.00059362
 <Feb10-2023> <06:46:58>  cart. step max                      0.03778510     0.01000000    F
 <Feb10-2023> <06:46:58>  cart. step rms                      0.01169744     0.00666667    F
  Coordinates in Geometry Cycle 15
    Atom         X           Y           Z   (Angstrom)
    1.P        -0.439528    0.106246    1.021081
    2.O         0.205705    1.602137    1.343112
    3.O         0.603042   -0.726708    0.302518
    4.O        -1.112289   -0.340673    2.295245
    5.O        -1.677589    0.449863   -0.028919
    6.H         0.951081    1.750739    0.727218
    7.H        -1.313438    0.482365   -0.936771
 <Feb10-2023> <06:46:58>  >>>> CORORT
 <Feb10-2023> <06:46:58>  >>>> CLSMAT
 <Feb10-2023> <06:46:58>  >>>> ORTHON
 <Feb10-2023> <06:46:58>  >>>> GENPT
 <Feb10-2023> <06:46:58>  Block Length= 128
 <Feb10-2023> <06:46:58>  >>>> PTBAS
 <Feb10-2023> <06:46:58>  combining surface points...
 <Feb10-2023> <06:46:58>  combining surface points...
 <Feb10-2023> <06:46:58>  combining surface points...
 <Feb10-2023> <06:46:58>  >>>> CYCLE
 <Feb10-2023> <06:46:59>              |Error|         MaxErr       Wt(A-DIIS)
 <Feb10-2023> <06:46:59>      1      0.11483561      0.01928467
 <Feb10-2023> <06:46:59>      2      0.19310537      0.03511877    100.0
 <Feb10-2023> <06:46:59>      3      0.08768857      0.01952224    100.0
 <Feb10-2023> <06:47:00>      4      0.09128287      0.02477602     24.0
 <Feb10-2023> <06:47:00>      5      0.06062293      0.01777974     16.9
 <Feb10-2023> <06:47:00>      6      0.01947970      0.00397947      3.0
 <Feb10-2023> <06:47:00>      7      0.00516719      0.00119633      0.2
 <Feb10-2023> <06:47:01>      8      0.00232059      0.00054317      0.0
 <Feb10-2023> <06:47:01>      9      0.00056101      0.00011919      0.0
 <Feb10-2023> <06:47:01>     10      0.00003045      0.00000609      0.0
 <Feb10-2023> <06:47:02>     11      0.00001162      0.00000280      0.0
 <Feb10-2023> <06:47:02>     12      0.00000807      0.00000197      0.0
 <Feb10-2023> <06:47:02>     13      0.00000030      0.00000006      0.0
 <Feb10-2023> <06:47:02>  SCF converged
 <Feb10-2023> <06:47:02>     14      0.00000005      0.00000001      0.0
 <Feb10-2023> <06:47:02>  >>>> TOTEN
 <Feb10-2023> <06:47:03>  >>>> POPAN
 <Feb10-2023> <06:47:03>  >>>> DEBYE
 <Feb10-2023> <06:47:03>  >>>> ENGRAD
 <Feb10-2023> <06:47:03>  current energy                               -1.72045007 Hartree
 <Feb10-2023> <06:47:03>  energy change                      -0.00004503     0.00100000    T
 <Feb10-2023> <06:47:03>  constrained gradient max            0.00102602     0.00100000    F
 <Feb10-2023> <06:47:03>  constrained gradient rms            0.00047084     0.00066667    T
 <Feb10-2023> <06:47:03>  gradient max                        0.00102602
 <Feb10-2023> <06:47:03>  gradient rms                        0.00047084
 <Feb10-2023> <06:47:03>  cart. step max                      0.02402498     0.01000000    F
 <Feb10-2023> <06:47:03>  cart. step rms                      0.01073960     0.00666667    F
  Coordinates in Geometry Cycle 16
    Atom         X           Y           Z   (Angstrom)
    1.P        -0.437210    0.099622    1.024466
    2.O         0.216961    1.590782    1.353963
    3.O         0.601920   -0.740589    0.310668
    4.O        -1.116274   -0.341205    2.297281
    5.O        -1.669202    0.451502   -0.029732
    6.H         0.927056    1.766622    0.704166
    7.H        -1.306266    0.497235   -0.937328
 <Feb10-2023> <06:47:03>  >>>> CORORT
 <Feb10-2023> <06:47:03>  >>>> CLSMAT
 <Feb10-2023> <06:47:03>  >>>> ORTHON
 <Feb10-2023> <06:47:03>  >>>> GENPT
 <Feb10-2023> <06:47:03>  Block Length= 128
 <Feb10-2023> <06:47:03>  >>>> PTBAS
 <Feb10-2023> <06:47:03>  combining surface points...
 <Feb10-2023> <06:47:03>  combining surface points...
 <Feb10-2023> <06:47:03>  combining surface points...
 <Feb10-2023> <06:47:03>  >>>> CYCLE
 <Feb10-2023> <06:47:04>              |Error|         MaxErr       Wt(A-DIIS)
 <Feb10-2023> <06:47:04>      1      0.11543129      0.02145312
 <Feb10-2023> <06:47:04>      2      0.19551063      0.03527037    100.0
 <Feb10-2023> <06:47:04>      3      0.08854912      0.01935233    100.0
 <Feb10-2023> <06:47:04>      4      0.09101493      0.02442901     23.7
 <Feb10-2023> <06:47:05>      5      0.06182743      0.01807784     17.3
 <Feb10-2023> <06:47:05>      6      0.01989545      0.00412903      3.2
 <Feb10-2023> <06:47:05>      7      0.00519156      0.00118904      0.2
 <Feb10-2023> <06:47:05>      8      0.00232619      0.00054920      0.0
 <Feb10-2023> <06:47:06>      9      0.00057393      0.00012506      0.0
 <Feb10-2023> <06:47:06>     10      0.00003147      0.00000618      0.0
 <Feb10-2023> <06:47:06>     11      0.00001392      0.00000336      0.0
 <Feb10-2023> <06:47:06>     12      0.00000812      0.00000198      0.0
 <Feb10-2023> <06:47:07>     13      0.00000030      0.00000006      0.0
 <Feb10-2023> <06:47:07>  SCF converged
 <Feb10-2023> <06:47:07>     14      0.00000005      0.00000001      0.0
 <Feb10-2023> <06:47:07>  >>>> TOTEN
 <Feb10-2023> <06:47:07>  >>>> POPAN
 <Feb10-2023> <06:47:07>  >>>> DEBYE
 <Feb10-2023> <06:47:07>  >>>> ENGRAD
 <Feb10-2023> <06:47:08>  current energy                               -1.72046881 Hartree
 <Feb10-2023> <06:47:08>  energy change                      -0.00001873     0.00100000    T
 <Feb10-2023> <06:47:08>  constrained gradient max            0.00082720     0.00100000    T
 <Feb10-2023> <06:47:08>  constrained gradient rms            0.00035068     0.00066667    T
 <Feb10-2023> <06:47:08>  gradient max                        0.00082720
 <Feb10-2023> <06:47:08>  gradient rms                        0.00035068
 <Feb10-2023> <06:47:08>  cart. step max                      0.02949313     0.01000000    F
 <Feb10-2023> <06:47:08>  cart. step rms                      0.01046378     0.00666667    F
  Coordinates in Geometry Cycle 17
    Atom         X           Y           Z   (Angstrom)
    1.P        -0.436465    0.101892    1.024810
    2.O         0.226807    1.585227    1.368308
    3.O         0.593411   -0.743204    0.303410
    4.O        -1.115753   -0.343727    2.295981
    5.O        -1.662137    0.476359   -0.030364
    6.H         0.917553    1.779680    0.703100
    7.H        -1.306432    0.467742   -0.941760
 <Feb10-2023> <06:47:08>  >>>> CORORT
 <Feb10-2023> <06:47:08>  >>>> CLSMAT
 <Feb10-2023> <06:47:08>  >>>> ORTHON
 <Feb10-2023> <06:47:08>  >>>> GENPT
 <Feb10-2023> <06:47:08>  Block Length= 128
 <Feb10-2023> <06:47:08>  >>>> PTBAS
 <Feb10-2023> <06:47:08>  combining surface points...
 <Feb10-2023> <06:47:08>  combining surface points...
 <Feb10-2023> <06:47:08>  combining surface points...
 <Feb10-2023> <06:47:08>  >>>> CYCLE
 <Feb10-2023> <06:47:08>              |Error|         MaxErr       Wt(A-DIIS)
 <Feb10-2023> <06:47:08>      1      0.11800618      0.02142498
 <Feb10-2023> <06:47:09>      2      0.19559843      0.03536193    100.0
 <Feb10-2023> <06:47:09>      3      0.09067936      0.02274539    100.0
 <Feb10-2023> <06:47:09>      4      0.10592049      0.03086361    100.0
 <Feb10-2023> <06:47:09>      5      0.14739290      0.04722453    100.0
 <Feb10-2023> <06:47:10>      6      0.01010497      0.00190129      0.9
 <Feb10-2023> <06:47:10>      7      0.00441992      0.00076516      0.0
 <Feb10-2023> <06:47:10>      8      0.00205573      0.00048165      0.0
 <Feb10-2023> <06:47:11>      9      0.00078643      0.00020892      0.0
 <Feb10-2023> <06:47:11>     10      0.00004168      0.00000641      0.0
 <Feb10-2023> <06:47:11>     11      0.00000641      0.00000159      0.0
 <Feb10-2023> <06:47:11>     12      0.00000513      0.00000115      0.0
 <Feb10-2023> <06:47:11>     13      0.00000055      0.00000014      0.0
 <Feb10-2023> <06:47:11>  SCF converged
 <Feb10-2023> <06:47:12>     14      0.00000006      0.00000002      0.0
 <Feb10-2023> <06:47:12>  >>>> TOTEN
 <Feb10-2023> <06:47:12>  >>>> POPAN
 <Feb10-2023> <06:47:12>  >>>> DEBYE
 <Feb10-2023> <06:47:12>  >>>> ENGRAD
 <Feb10-2023> <06:47:12>  current energy                               -1.72047365 Hartree
 <Feb10-2023> <06:47:12>  energy change                      -0.00000484     0.00100000    T
 <Feb10-2023> <06:47:12>  constrained gradient max            0.00048421     0.00100000    T
 <Feb10-2023> <06:47:12>  constrained gradient rms            0.00017278     0.00066667    T
 <Feb10-2023> <06:47:12>  gradient max                        0.00048421
 <Feb10-2023> <06:47:12>  gradient rms                        0.00017278
 <Feb10-2023> <06:47:12>  cart. step max                      0.01068588     0.01000000    F
 <Feb10-2023> <06:47:12>  cart. step rms                      0.00321690     0.00666667    T
  Coordinates in Geometry Cycle 18
    Atom         X           Y           Z   (Angstrom)
    1.P        -0.436738    0.100264    1.025324
    2.O         0.224996    1.585037    1.364995
    3.O         0.594898   -0.744681    0.305995
    4.O        -1.115925   -0.343313    2.297198
    5.O        -1.663455    0.470007   -0.030110
    6.H         0.916175    1.778228    0.699812
    7.H        -1.302967    0.478428   -0.939729
 <Feb10-2023> <06:47:12>  >>>> CORORT
 <Feb10-2023> <06:47:12>  >>>> CLSMAT
 <Feb10-2023> <06:47:12>  >>>> ORTHON
 <Feb10-2023> <06:47:12>  >>>> GENPT
 <Feb10-2023> <06:47:12>  Block Length= 128
 <Feb10-2023> <06:47:12>  >>>> PTBAS
 <Feb10-2023> <06:47:12>  combining surface points...
 <Feb10-2023> <06:47:12>  combining surface points...
 <Feb10-2023> <06:47:12>  combining surface points...
 <Feb10-2023> <06:47:12>  >>>> CYCLE
 <Feb10-2023> <06:47:13>              |Error|         MaxErr       Wt(A-DIIS)
 <Feb10-2023> <06:47:13>      1      0.10798092      0.01828079
 <Feb10-2023> <06:47:13>      2      0.19517189      0.03519921    100.0
 <Feb10-2023> <06:47:14>      3      0.08782151      0.01705757    100.0
 <Feb10-2023> <06:47:14>      4      0.08490654      0.02124628     20.5
 <Feb10-2023> <06:47:14>      5      0.05961072      0.01727381     16.4
 <Feb10-2023> <06:47:14>      6      0.02213866      0.00508376      4.1
 <Feb10-2023> <06:47:15>      7      0.00532155      0.00123173      0.2
 <Feb10-2023> <06:47:15>      8      0.00235369      0.00056087      0.0
 <Feb10-2023> <06:47:15>      9      0.00056109      0.00012020      0.0
 <Feb10-2023> <06:47:15>     10      0.00002961      0.00000596      0.0
 <Feb10-2023> <06:47:16>     11      0.00000564      0.00000086      0.0
 <Feb10-2023> <06:47:16>  SCF converged
 <Feb10-2023> <06:47:16>     12      0.00000201      0.00000048      0.0
 <Feb10-2023> <06:47:16>  >>>> TOTEN
 <Feb10-2023> <06:47:16>  >>>> POPAN
 <Feb10-2023> <06:47:16>  >>>> DEBYE
 <Feb10-2023> <06:47:16>  >>>> ENGRAD
 <Feb10-2023> <06:47:17>  current energy                               -1.72047501 Hartree
 <Feb10-2023> <06:47:17>  energy change                      -0.00000136     0.00100000    T
 <Feb10-2023> <06:47:17>  constrained gradient max            0.00026720     0.00100000    T
 <Feb10-2023> <06:47:17>  constrained gradient rms            0.00010247     0.00066667    T
 <Feb10-2023> <06:47:17>  gradient max                        0.00026720
 <Feb10-2023> <06:47:17>  gradient rms                        0.00010247
 <Feb10-2023> <06:47:17>  cart. step max                      0.00314130     0.01000000    T
 <Feb10-2023> <06:47:17>  cart. step rms                      0.00110780     0.00666667    T
 <Feb10-2023> <06:47:17>  GEOMETRY CONVERGED
 <Feb10-2023> <06:47:17>  Calculating Energy Terms for Final Geometry
  Coordinates in Geometry Cycle 18
    Atom         X           Y           Z   (Angstrom)
    1.P        -0.436738    0.100264    1.025324
    2.O         0.224996    1.585037    1.364995
    3.O         0.594898   -0.744681    0.305995
    4.O        -1.115925   -0.343313    2.297198
    5.O        -1.663455    0.470007   -0.030110
    6.H         0.916175    1.778228    0.699812
    7.H        -1.302967    0.478428   -0.939729
 <Feb10-2023> <06:47:17>  >>>> CORORT
 <Feb10-2023> <06:47:17>  >>>> CLSMAT
 <Feb10-2023> <06:47:17>  >>>> ORTHON
 <Feb10-2023> <06:47:17>  >>>> GENPT
 <Feb10-2023> <06:47:17>  Block Length= 128
 <Feb10-2023> <06:47:17>  >>>> PTBAS
 <Feb10-2023> <06:47:17>  combining surface points...
 <Feb10-2023> <06:47:17>  combining surface points...
 <Feb10-2023> <06:47:17>  combining surface points...
 <Feb10-2023> <06:47:17>  >>>> CYCLE
 <Feb10-2023> <06:47:17>              |Error|         MaxErr       Wt(A-DIIS)
 <Feb10-2023> <06:47:17>      1      0.10711798      0.03218174
 <Feb10-2023> <06:47:18>      2      0.19513627      0.04688041    100.0
 <Feb10-2023> <06:47:18>      3      0.08782269      0.02454878    100.0
 <Feb10-2023> <06:47:18>      4      0.08548108      0.01885265     18.0
 <Feb10-2023> <06:47:18>      5      0.05618248      0.01376741     12.9
 <Feb10-2023> <06:47:19>      6      0.01981788      0.00377925      2.8
 <Feb10-2023> <06:47:19>      7      0.00516654      0.00109789      0.1
 <Feb10-2023> <06:47:19>      8      0.00233188      0.00049307      0.0
 <Feb10-2023> <06:47:20>      9      0.00055789      0.00010916      0.0
 <Feb10-2023> <06:47:20>     10      0.00002919      0.00000629      0.0
 <Feb10-2023> <06:47:20>     11      0.00000545      0.00000094      0.0
 <Feb10-2023> <06:47:20>  SCF converged
 <Feb10-2023> <06:47:20>     12      0.00000036      0.00000007      0.0
 <Feb10-2023> <06:47:20>  >>>> TOTEN
 <Feb10-2023> <06:47:21>  QTAIM: determining topology...
 <Feb10-2023> <06:47:21>  >>>> POPAN
 <Feb10-2023> <06:47:21>  >>>> DEBYE
 <Feb10-2023> <06:47:21>  >>>> AMETS
 <Feb10-2023> <06:47:21>  >>>> POPUL
 <Feb10-2023> <06:47:21>   Bond Energy          -1.72047501 a.u.
 <Feb10-2023> <06:47:21>   Bond Energy         -46.81650709 eV
 <Feb10-2023> <06:47:21>   Bond Energy       -1079.61       kcal/mol
 <Feb10-2023> <06:47:21>  >>>> ENHESS
 <Feb10-2023> <06:47:21>  === NUCLEUS:     1
 <Feb10-2023> <06:47:33>  === NUCLEUS:     2
 <Feb10-2023> <06:47:45>  === NUCLEUS:     3
 <Feb10-2023> <06:47:56>  === NUCLEUS:     4
 <Feb10-2023> <06:48:08>  === NUCLEUS:     5
 <Feb10-2023> <06:48:19>  === NUCLEUS:     6
 <Feb10-2023> <06:48:31>  === NUCLEUS:     7
 <Feb10-2023> <06:48:42>  >>>> CALC_HESS_PMAT
 <Feb10-2023> <06:48:42>  >>>> CALC_HESS_WMAT
 <Feb10-2023> <06:48:42>  NORMAL TERMINATION
 <Feb10-2023> <06:48:42>  END
