
 *******************************************************************************
 *                                                                             *
 *  -------------------------------------                                      *
 *   Amsterdam Density Functional  (ADF)         2019                          *
 *  -------------------------------------                                      *
 *                                               r74351 2019-04-25             *
 *                                                                             *
 *                                                                             *
 *                            =====================                            *
 *                            |                   |                            *
 *                            |     D I R A C     |                            *
 *                            |                   |                            *
 *                            =====================                            *
 *                                                                             *
 *                                                                             *
 *   Online information and documentation:  https://www.scm.com/support/       *
 *   E-mail:  support@scm.com   info@scm.com                                   *
 *                                                                             *
 *   Scientific publications using ADF results must be properly referenced     *
 *   See the User Manuals (or the web site) for recommended citations          *
 *   The terms and conditions of the End User License Agreement apply to       *
 *   the use of ADF, https://www.scm.com/license-terms/                        *
 *                                                                             *
 **********************  x86_64_linux_intel / intelmpi  ************************
 
 Licensed to: Dr. Carles Bo / Institute of Chemical Research of Catalonia ( (ICIQ) / Tarragona / Spain 2022-11-28 14:37:29
 SCM User ID: u7609
  
 DIRAC 2019  RunTime: Feb12-2023 21:59:38  Nodes: 1  Procs: 1

 Temporary files are created in /scratch/kid_0.1632851310

1
 HYDROGEN ATOM RELATIVISTIC, Point Nuc, A and c from libtc   
 N J RN H ZN XION ANUC CLIGHT
 5000    1100.00000000197.36710137  1.00000000  0.00000000    1.007825  0.1370360E+03
  PH   PHI     EPS        DEL        DELRVR
  0.30  0.30     2500.00  0.00001000  0.00001000
 IDIRC  NC1  NDEBU NPRIN  IPUN IRCOR IWCOR
   1   300     0     0     0     0     0
   XALPHA      XLATTER      RNUC
  0.70000000  0.00000000  0.00000000 Point Charge
   XN   XL   XJ      XE          XZ      XDELL
  1.0  0.0  0.5      -1.000       1.000     0.00000
 ICORP=  0  NPCL=  0  DEMP=0.00  PEPS=0.000000
 R(1)=  0.1000000E-08 D=  0.1005080E+01 RNUC=  0.0000000E+00
 converged at cycle   32  DENSITY AVERAGING    0.2400
  MAXIMUM ERROR IN R.V(R) IS   0.79874357E-05
 Q,EY,EV,EZ,ESUM,ETOT,RHO  0.100000E+01 -0.266614E+00 -0.619969E+00 -0.910779E+00 -0.203940E+00 -0.415998E+00  0.337036E-17


 DIRAC CALCULATION
1                    HYDROGEN ATOM RELATIVISTIC, Point Nuc, A and c from libtc


 EXCHANGE COEFFICIENT=  0.7000000           TAIL CORRECTION=  0.           NUCLEAR RADIUS=  0.000E+00
0                       ORBITAL    N    L    J     ELECTRONS     EIGENVALUE                DELTA OF EIGENV.

                          1S1/2  1.0  0.0  0.5     1.000       -0.2039397E+00                 0.2720093E-06


                                        NUCLEAR CHARGE=    1.000000
                            INTEGRAL OF CHARGE DENSITY=    1.000000
                           SUM OF THE ORBITAL ENERGIES=     -0.2039
                                          TOTAL ENERGY=     -0.4160
                                        KINETIC ENERGY=      0.4160
                             NUCLEAR ATTRACTION ENERGY=     -0.9108
                             ELECTRON REPULSION ENERGY=      0.2787
                                       EXCHANGE ENERGY=     -0.2000

 *******************************************************************************

                             D I R A C   E X I T
 NORMAL TERMINATION



 =================
 Timing Statistics
 =================
  
 Total Used :                     CPU=        0.08      System=        0.00     Elapsed=        0.09

 Calls  Section                     ( Mean, Percentage )
 ---------------------------------------------------------------------------------------------------
     2  ><      ................      0.00    0.00             0.00    0.00             0.00    0.01
     1  EXIT PROCEDURE .........      0.08  100.00             0.00    0.00             0.09   99.99


 Currently Open Files (EXIT00)
 ====================

 Unit    Access Format  Status   Type       Ident (file)
 -------------------------------------------------------
   3      SEQ    FORM   TRANSP  NORMAL      LOGFILE
                                          ( logfile )
 
Create H   file=TZP-H
XC
  GGA PBE
End
relativistic ZORA
Corepotentials t12.rel
End

 *******************************************************************************
 *                                                                             *
 *  -------------------------------------                                      *
 *   Amsterdam Density Functional  (ADF)         2019                          *
 *  -------------------------------------                                      *
 *                                               r74351 2019-04-25             *
 *                                                                             *
 *                                                                             *
 *                              =================                              *
 *                              |               |                              *
 *                              |     A D F     |                              *
 *                              |               |                              *
 *                              =================                              *
 *                                                                             *
 *                                                                             *
 *   Online information and documentation:  https://www.scm.com/support/       *
 *   E-mail:  support@scm.com   info@scm.com                                   *
 *                                                                             *
 *   Scientific publications using ADF results must be properly referenced     *
 *   See the User Manuals (or the web site) for recommended citations          *
 *   The terms and conditions of the End User License Agreement apply to       *
 *   the use of ADF, https://www.scm.com/license-terms/                        *
 *                                                                             *
 **********************  x86_64_linux_intel / intelmpi  ************************
 
 Licensed to: Dr. Carles Bo / Institute of Chemical Research of Catalonia ( (ICIQ) / Tarragona / Spain 2022-11-28 14:37:29
 SCM User ID: u7609
  
 ADF 2019  RunTime: Feb12-2023 21:59:38  Nodes: 1  Procs: 1

 Temporary files are created in /scratch/kid_0.1669109699

 Hydrogen (TZP)



 ===========================
 A T T A C H E D   F I L E S
 ===========================
  
 CREATE - Data File:    TZP-H
                        Hydrogen (TZP)
 Core Potentials:
         file : t12.rel



 ===============================
 M O D E L   P A R A M E T E R S
 ===============================
  
 DENSITY FUNCTIONAL POTENTIAL (scf)
    LDA:                               PW92                                    == Not Default ==
    Gradient Corrections:              PBEc PBEx                               == Not Default ==

 SPIN  (restricted / unrestr.)
    Molecule:                          Restricted                               

 OTHER ASPECTS
    Relativistic Corrections:          scalar (ZORA,MAPA)                      == Not Default ==

    Nuclear Charge Density Model:      Point Charge Nuclei                      
    Core Treatment:                    Frozen Orbital(s)                        

    Hyperfine or Zeeman Interaction:   ---                                      



 =====================================
 S Y M M E T R Y ,   E L E C T R O N S
 =====================================
  
 Symmetry: ATOM

 Irreducible Representations, including subspecies
 -------------------------------------------------
 S
 P:x  P:y  P:z
 D:z2  D:x2-y2  D:xy  D:xz  D:yz
 F:z3  F:z  F:xyz  F:z2x  F:z2y  F:x  F:y


 Configuration of Valence Electrons
 ==================================

          Occupation Numbers
          -------------------------------------------------
 S        1
 P        0
 D        0
 F        0
          -------------------------------------------------

 Total:   1

 Net Charge: 0 (Nuclei minus Electrons)

 Preset values for MO occupations will be applied through SCF cycle no. 1000000
 Thereafter, the program will assign electrons to MOs that are spatially
 similar to the occupied MOs in a "reference" cycle ("KeepOrbitals").
 The reference cycle is always the PREVIOUS cycle: it will evolve with
 the SCF procedure.



 ================================
 (Slater-type)  F U N C T I O N S  ***  (Basis and Fit)  ***
 ================================
  

 Atom Type    1  (H)
 ==============

 Valence Basis Sets:   4
 -----------------------
   1 S    0.690000
   1 S    0.920000
   1 S    1.580000
   2 P    1.250000


 BAS: List of all Elementary Cartesian Basis Functions
 =====================================================

 The numbering in the list below (to the right of the function characteristics) is referred
 to in print-outs of MO eigenvectors and Mulliken populations in the BAS representation
 (as contrasted to the SFO representation).

 Notes:
 1. The functions are characterized by a polynomial prefactor (powers of x,y,z and r) and
    an exponential decay factor alpha.
 2. Since the basis sets are specific for an atom TYPE, the individual functions occur on
    all atoms of that type.
 3. The word 'Core' in the left margin signals that it is a Core Function (CF) : not a
    degree of freedom in the valence set, but only used to ensure orthogonalization of
    the other valence basis functions on the frozen Core Orbitals.


 (power of) X  Y  Z  R     Alpha  on Atom
            ==========     =====     ==========

 H                                    1
                                  ---------------------------------------------------------------------------
            0  0  0  0     0.690      1
            0  0  0  0     0.920      2
            0  0  0  0     1.580      3
            1  0  0  0     1.250      4
            0  1  0  0     1.250      5
            0  0  1  0     1.250      6

 Total number of charge fitting functions (nprimf)        50
 Total number of Cartesian basis functions (naos)          6
 Total number of Cartesian core functions  (ncos)          0



 BAS: List of all Elementary Cartesian Basis Functions
 =====================================================

 The numbering in the list below (to the right of the function characteristics) is referred
 to in print-outs of MO eigenvectors and Mulliken populations in the BAS representation
 (as contrasted to the SFO representation).

 Notes:
 1. The functions are characterized by a polynomial prefactor (powers of x,y,z and r) and
    an exponential decay factor alpha.
 2. Since the basis sets are specific for an atom TYPE, the individual functions occur on
    all atoms of that type.
 3. The word 'Core' in the left margin signals that it is a Core Function (CF) : not a
    degree of freedom in the valence set, but only used to ensure orthogonalization of
    the other valence basis functions on the frozen Core Orbitals.


 (power of) X  Y  Z  R     Alpha  on Atom
            ==========     =====     ==========

 H                                    1
                                  ---------------------------------------------------------------------------
            0  0  0  0     0.690      1
            0  0  0  0     0.920      2
            0  0  0  0     1.580      3
            1  0  0  0     1.250      4
            0  1  0  0     1.250      5
            0  0  1  0     1.250      6
1
 ***************************************************************************************************



                                              ***********************
                                              *  T E C H N I C A L  *
                                              ***********************
  



 =============================================================
 P A R A L L E L I Z A T I O N  and  V E C T O R I Z A T I O N
 =============================================================
  
 Nr of parallel processes:                                1
 Maximum vector length in NumInt loops:                 128



 =====================
 S C F   U P D A T E S
 =====================
  
 Max. nr. of cycles:                               300
 Convergence criterion:                              0.0000000100
   secondary criterion:                              0.0000000100

 Mix parameter (when DIIS does not apply):           0.2000000000
 Special mix parameter for the first cycle:          1.0000000000
 Mixed ADIIS+SDIIS will be used                  
    Max number of expansion vectors:                10
    Pure ADIIS when Max([F,P]) is above              0.1000000000
    Pure SDIIS when Max([F,P]) is below              0.0010000000
 Automatic ElectronSmearing (in case of problematic SCF convergence) disabled



 =================
 P R E C I S I O N  ***  (General: NumInt, NeglectFunctionTails, ...)  ***
 =================
  

 NumInt:           Target precision:                12.0000000000
 -------           Initial precision:               10.0000000000
                   Min. precision (optimization):   10.0000000000

 Neglect Functions:          Basis functions:        0.1000000000E-13
 ------------------          Fit functions:          0.1000000000E-13



 ===========================
 L I N E A R   S C A L I N G
 ===========================
  

 Cut-off radii density fit:                        0.1000000000E-97
 Overlap cut-off criterion AO matrix elements:     0.1000000000E-97
 Cut-offs for Coulomb potential and fitted density:0.1000000000E-97
 Cut-off criterion for Coulomb multipole terms:    0.1000000000E-97
 Progressive Convergence parameter:                 0.000000000    
1
 ***************************************************************************************************



                                            ***************************
                                            *  C O M P U T A T I O N  *
                                            ***************************
  

 Number of elements of the density matrix on this node (used, total):        21        21



 ===========================================
 Numerical Integration : Fuzzy Cells (Becke)
 ===========================================
  
 Becke grid quality: VERYGOOD       
  
 Lebedev angular grid order:             min:  13 max:  41
 Nr. of radial points:                   min:  64 max:  64

 Total nr. of points:         64
 Nr. of blocks:                1
 Block length:                64
 Nr. of dummy points:          0


 Test of Precision of the Numerical Integration Grid
 ===================================================

 Integral of the Total Core Density:                   0.00000000000000



 ========================
 Density Fitting (zlmFit)
 ========================
  
 ZlmFit Fit Quality: VERYGOOD       
  
 Max L-expansion:                        min:   0 max:   0
 Nr. of radial interpolation points:     min: 120 max: 120



 =====
 S C F  ***  ScaSCF  ***
 =====
  

 CYCLE    1
 SCF Error: norm([F,P])=      0.000000000000, max([F,P])=      0.000000000000
 orbitals (Q,E):
 ---------------
 S :1...3            ( 1.00    -0.5000)  ( 0.00    -0.0900)  ( 0.00     1.2936)
 P :1...1            ( 0.00     0.1562)

 CYCLE    2
 SCF Error: norm([F,P])=      0.031537872292, max([F,P])=      0.030110494752
 orbitals (Q,E):
 ---------------
 S :1...2            ( 1.00    -0.2218)  ( 0.00     0.1019)
 P :1...1            ( 0.00     0.4189)

 CYCLE    3
  SDIIS (wt  0.000):  0.1996  0.8004
 A-DIIS (wt  1.000):  0.0000  1.0000
  DIIS coefficients:  0.0000  1.0000
 SCF Error: norm([F,P])=      0.008617989401, max([F,P])=      0.008343029399
 orbitals (Q,E):
 ---------------
 S :1...2            ( 1.00    -0.2422)  ( 0.00     0.0889)
 P :1...1            ( 0.00     0.4024)

 CYCLE    4
  SDIIS (wt  0.993):  0.1666  0.8334
 A-DIIS (wt  0.007):  0.0000  1.0000
  DIIS coefficients:  0.1654  0.8346
 SCF Error: norm([F,P])=      0.001732350026, max([F,P])=      0.001718616814
 orbitals (Q,E):
 ---------------
 S :1...2            ( 1.00    -0.2385)  ( 0.00     0.0908)
 P :1...1            ( 0.00     0.4054)

 CYCLE    5
  SDIIS (wt  1.000):  0.0236  0.9764
  DIIS coefficients:  0.0236  0.9764
 SCF Error: norm([F,P])=      0.000043673449, max([F,P])=      0.000039769875
 orbitals (Q,E):
 ---------------
 S :1...2            ( 1.00    -0.2386)  ( 0.00     0.0908)
 P :1...1            ( 0.00     0.4054)

 CYCLE    6
  SDIIS (wt  1.000): -0.0577  1.0577
  DIIS coefficients: -0.0577  1.0577
 SCF Error: norm([F,P])=      0.000002383805, max([F,P])=      0.000002158128
 orbitals (Q,E):
 ---------------
 S :1...2            ( 1.00    -0.2386)  ( 0.00     0.0908)
 P :1...1            ( 0.00     0.4054)

 CYCLE    7
  SDIIS (wt  1.000): -0.0032  1.0032
  DIIS coefficients: -0.0032  1.0032
 SCF Error: norm([F,P])=      0.000000007721, max([F,P])=      0.000000007228
 orbitals (Q,E):
 ---------------
 S :1...2            ( 1.00    -0.2386)  ( 0.00     0.0908)
 P :1...1            ( 0.00     0.4054)

 SCF CONVERGED

 CYCLE    8
1
 ***************************************************************************************************



                                                *******************
                                                *  R E S U L T S  *
                                                *******************
  
 *** Using FIT density in Focky
  SDIIS (wt  1.000):  0.0192  0.9808
  DIIS coefficients:  0.0192  0.9808
 SCF Error: norm([F,P])=      0.000000000151, max([F,P])=      0.000000000141

 Scaled ZORA Orbital Energies, per Irrep and Spin:
 =================================================
                        Occup              E (au)              E (eV)       Diff (eV) with prev. cycle
                        -----      --------------------        ------       --------------------------
 S
               1        1.000     -0.23861775226993E+00        -6.493               7.43E-09
               2        0.000      0.90791701709251E-01         2.471
               3        0.000      0.15217530108908E+01        41.409
 P
               1        0.000      0.40537978060393E+00        11.031


 Partially Occupied:
               1 S                -0.23861775226993E+00
  
 LUMO :        2 S                 0.90791701709251E-01
  


 Orbital Energies, all Irreps
 ========================================

 Irrep        no.  (spin)   Occup              E (au)                E (eV)
 ---------------------------------------------------------------------------
 S             1             1.00       -0.23861775226993E+00        -6.4931
 S             2             0.00        0.90791701709251E-01         2.4706
 P             1             0.00        0.40537978060393E+00        11.0309
 S             3             0.00        0.15217530108908E+01        41.4090


 All Electron Calculation, thus no Orbital Energies of the Core Orbitals are calculated



 =======================================
 M U L L I K E N   P O P U L A T I O N S
 =======================================
  
 The survey below gives for each atom:
 a) the total charge (Z minus electrons)
 b) the net spin polarization (nr of electrons spin-A minus spin-B)
 c) for each spin the atomic electron valence density (integrated) per L-value.

 Atom              Charge    Spin density          S         P         D         F
 ----              ------    ------------       ------    ------    ------    ------
 1 H              -0.0000                       1.0000    0.0000    0.0000    0.0000

 Populations of individual BAS functions
 ----------------------------------------
 1 H            0.2104  0.6788  0.1107  0.0000  0.0000  0.0000

 Gross Charges per Atom (Z minus electrons)
 ==========================================
            -0.0000
 Net Total: -0.00000000



 =======================================================================
 Electrostatic potential at the Nuclei due to electrons and other nuclei
 =======================================================================
  
         Atom                  Potential
         ----                  ---------
     1)   H                   0.94468022
 
 
 ========================
 No memory problems found
 ========================
 
 Maximum number of active allocate calls:         306
 
 *******************************************************************************

                             A D F   E X I T
 NORMAL TERMINATION



 =================
 Timing Statistics
 =================
  
 Total Used :                     CPU=        0.34      System=        0.03     Elapsed=        0.42

 Calls  Section                     ( Mean, Percentage )
 ---------------------------------------------------------------------------------------------------
     3  ><      ................      0.00    0.00             0.00   14.28             0.00    1.10
     1  INIT    ................      0.07   21.18             0.00    0.00             0.09   21.89
     1  GEOMET  ................      0.02    5.88             0.00    0.00             0.03    6.60
     1  INPUTA  ................      0.00    1.18             0.00    0.00             0.00    0.85
     1  MAINSY  ................      0.00    0.00             0.01   28.57             0.01    3.11
     1  SYMFIT  ................      0.00    0.00             0.00   14.28             0.00    0.39
     1  CORORT  ................      0.00    0.00             0.00    0.00             0.00    0.31
     1  SYMORB  ................      0.00    0.00             0.00    0.00             0.00    0.17
     1  CLSMAT  ................      0.01    2.35             0.00    0.00             0.01    1.28
     1  ORTHON  ................      0.00    1.18             0.00    0.00             0.01    1.20
     1  GENPT   ................      0.01    3.53             0.00    0.00             0.01    3.11
     1  PTBAS   ................      0.00    0.00             0.00    0.00             0.00    1.15
     8  FOCKY   ................      0.02   51.77             0.00   28.57             0.02   44.03
     8  FOCKTR  ................      0.00    1.18             0.00    0.00             0.00    0.94
     8  SDIIS   ................      0.00    3.53             0.00    0.00             0.00    5.55
     1  COREPS  ................      0.02    4.71             0.00    0.00             0.01    3.60
     1  POPAN   ................      0.00    0.00             0.00   14.29             0.00    1.10
     1  DEBYE   ................      0.00    0.00             0.00    0.00             0.00    0.47
     1  EXIT PROCEDURE .........      0.01    3.53             0.00    0.00             0.01    3.16


 Currently Open Files (EXIT00)
 ====================

 Unit    Access Format  Status   Type       Ident (file)
 -------------------------------------------------------
   3      SEQ    FORM   TRANSP  NORMAL      LOGFILE
                                          ( logfile )

 ***************************************************************************************************
 (LOGFILE)
 <Feb12-2023> <21:59:38>  DIRAC 2019  RunTime: Feb12-2023 21:59:38  Nodes: 1  Procs: 1
 <Feb12-2023> <21:59:38>  NORMAL TERMINATION
 <Feb12-2023> <21:59:38>  END
 <Feb12-2023> <21:59:38>  ADF 2019  RunTime: Feb12-2023 21:59:38  Nodes: 1  Procs: 1
 <Feb12-2023> <21:59:38>  Hydrogen (TZP)
 <Feb12-2023> <21:59:38>  RunType   : CREATE
 <Feb12-2023> <21:59:38>  Net Charge: 0 (Nuclei minus Electrons)
 <Feb12-2023> <21:59:38>  Symmetry  : ATOM
  Coordinates
    Atom         X           Y           Z   (Angstrom)
    1.H         0.000000    0.000000    0.000000
 <Feb12-2023> <21:59:38>  >>>> CORORT
 <Feb12-2023> <21:59:38>  >>>> CLSMAT
 <Feb12-2023> <21:59:38>  >>>> ORTHON
 <Feb12-2023> <21:59:38>  >>>> GENPT
 <Feb12-2023> <21:59:38>  Block Length=  64
 <Feb12-2023> <21:59:38>  >>>> PTBAS
 <Feb12-2023> <21:59:38>  >>>> CYCLE
 <Feb12-2023> <21:59:39>              |Error|         MaxErr       Wt(A-DIIS)
 <Feb12-2023> <21:59:39>      1      0.00000000      0.00000000
 <Feb12-2023> <21:59:39>      2      0.03153787      0.03011049
 <Feb12-2023> <21:59:39>      3      0.00861799      0.00834303    100.0
 <Feb12-2023> <21:59:39>      4      0.00173235      0.00171862      0.7
 <Feb12-2023> <21:59:39>      5      0.00004367      0.00003977      0.0
 <Feb12-2023> <21:59:39>      6      0.00000238      0.00000216      0.0
 <Feb12-2023> <21:59:39>      7      0.00000001      0.00000001      0.0
 <Feb12-2023> <21:59:39>  SCF converged
 <Feb12-2023> <21:59:39>      8      0.00000000      0.00000000      0.0
 <Feb12-2023> <21:59:39>  >>>> POPAN
 <Feb12-2023> <21:59:39>  >>>> DEBYE
 <Feb12-2023> <21:59:39>  NORMAL TERMINATION
 <Feb12-2023> <21:59:39>  END

 *******************************************************************************
 *                                                                             *
 *  -------------------------------------                                      *
 *   Amsterdam Density Functional  (ADF)         2019                          *
 *  -------------------------------------                                      *
 *                                               r74351 2019-04-25             *
 *                                                                             *
 *                                                                             *
 *                            =====================                            *
 *                            |                   |                            *
 *                            |     D I R A C     |                            *
 *                            |                   |                            *
 *                            =====================                            *
 *                                                                             *
 *                                                                             *
 *   Online information and documentation:  https://www.scm.com/support/       *
 *   E-mail:  support@scm.com   info@scm.com                                   *
 *                                                                             *
 *   Scientific publications using ADF results must be properly referenced     *
 *   See the User Manuals (or the web site) for recommended citations          *
 *   The terms and conditions of the End User License Agreement apply to       *
 *   the use of ADF, https://www.scm.com/license-terms/                        *
 *                                                                             *
 **********************  x86_64_linux_intel / intelmpi  ************************
 
 Licensed to: Dr. Carles Bo / Institute of Chemical Research of Catalonia ( (ICIQ) / Tarragona / Spain 2022-11-28 14:37:29
 SCM User ID: u7609
  
 DIRAC 2019  RunTime: Feb12-2023 21:59:39  Nodes: 1  Procs: 1

 Temporary files are created in /scratch/kid_0.452097504

1
 PHOSPHORUS ATOM 1s CORE RELATIVISTIC, Point Nuc, A and c fro
 N J RN H ZN XION ANUC CLIGHT
 5000    7100.00000000197.36710137 15.00000000  0.00000000   30.973761  0.1370360E+03
  PH   PHI     EPS        DEL        DELRVR
  0.30  0.30     2500.00  0.00001000  0.00001000
 IDIRC  NC1  NDEBU NPRIN  IPUN IRCOR IWCOR
   1   300     0     0     0     0     1
   XALPHA      XLATTER      RNUC
  0.70000000  0.00000000  0.00000000 Point Charge
   XN   XL   XJ      XE          XZ      XDELL
  1.0  0.0  0.5    -600.000       2.000     0.00000
  2.0  0.0  0.5     -75.000       2.000     0.00000
  2.0  1.0  0.5     -70.000       2.000     0.00000
  2.0  1.0  1.5     -70.000       4.000     0.00000
  3.0  0.0  0.5     -25.000       2.000     0.00000
  3.0  1.0  0.5      -0.250       2.000     0.00000
  3.0  1.0  1.5      -0.250       1.000     0.00000
 ICORP=  0  NPCL=  0  DEMP=0.00  PEPS=0.000000
 R(1)=  0.1000000E-08 D=  0.1005080E+01 RNUC=  0.0000000E+00
 converged at cycle   47  DENSITY AVERAGING    0.3000
  MAXIMUM ERROR IN R.V(R) IS   0.93255186E-05
 Q,EY,EV,EZ,ESUM,ETOT,RHO  0.150000E+02 -0.290161E+02 -0.536820E+03 -0.814855E+03 -0.194417E+03 -0.340688E+03  0.340722E-13


 DIRAC CALCULATION
1                    PHOSPHORUS ATOM 1s CORE RELATIVISTIC, Point Nuc, A and c from libtc


 EXCHANGE COEFFICIENT=  0.7000000           TAIL CORRECTION=  0.           NUCLEAR RADIUS=  0.000E+00
0                       ORBITAL    N    L    J     ELECTRONS     EIGENVALUE                DELTA OF EIGENV.

                          1S1/2  1.0  0.0  0.5     2.000       -0.7640874E+02                 0.2597240E-06
                          2S1/2  2.0  0.0  0.5     2.000       -0.6353640E+01                 0.3482713E-07
                          2P1/2  2.0  1.0  0.5     2.000       -0.4588256E+01                 0.3010938E-07
                          2P3/2  2.0  1.0  1.5     4.000       -0.4554413E+01                 0.2993762E-07
                          3S1/2  3.0  0.0  0.5     2.000       -0.4844206E+00                 0.1693624E-07
                          3P1/2  3.0  1.0  0.5     2.000       -0.1770291E+00                 0.1234259E-07
                          3P3/2  3.0  1.0  1.5     1.000       -0.1750217E+00                 0.1224459E-07


                                        NUCLEAR CHARGE=   15.000000
                            INTEGRAL OF CHARGE DENSITY=   15.000000
                           SUM OF THE ORBITAL ENERGIES=   -194.4169
                                          TOTAL ENERGY=   -340.6884
                                        KINETIC ENERGY=    342.4034
                             NUCLEAR ATTRACTION ENERGY=   -814.8554
                             ELECTRON REPULSION ENERGY=    153.5256
                                       EXCHANGE ENERGY=    -21.7621

 *******************************************************************************

                             D I R A C   E X I T
 NORMAL TERMINATION



 =================
 Timing Statistics
 =================
  
 Total Used :                     CPU=        0.28      System=        0.00     Elapsed=        0.30

 Calls  Section                     ( Mean, Percentage )
 ---------------------------------------------------------------------------------------------------
     2  ><      ................      0.00    0.00             0.00    0.00             0.00    0.00
     1  EXIT PROCEDURE .........      0.28  100.00             0.00    0.00             0.30  100.00


 Currently Open Files (EXIT00)
 ====================

 Unit    Access Format  Status   Type       Ident (file)
 -------------------------------------------------------
   3      SEQ    FORM   TRANSP  NORMAL      LOGFILE
                                          ( logfile )
 
Create P   file=TZP-P.1s
XC
  GGA PBE
End
relativistic ZORA
Corepotentials t12.rel
End

 *******************************************************************************
 *                                                                             *
 *  -------------------------------------                                      *
 *   Amsterdam Density Functional  (ADF)         2019                          *
 *  -------------------------------------                                      *
 *                                               r74351 2019-04-25             *
 *                                                                             *
 *                                                                             *
 *                              =================                              *
 *                              |               |                              *
 *                              |     A D F     |                              *
 *                              |               |                              *
 *                              =================                              *
 *                                                                             *
 *                                                                             *
 *   Online information and documentation:  https://www.scm.com/support/       *
 *   E-mail:  support@scm.com   info@scm.com                                   *
 *                                                                             *
 *   Scientific publications using ADF results must be properly referenced     *
 *   See the User Manuals (or the web site) for recommended citations          *
 *   The terms and conditions of the End User License Agreement apply to       *
 *   the use of ADF, https://www.scm.com/license-terms/                        *
 *                                                                             *
 **********************  x86_64_linux_intel / intelmpi  ************************
 
 Licensed to: Dr. Carles Bo / Institute of Chemical Research of Catalonia ( (ICIQ) / Tarragona / Spain 2022-11-28 14:37:29
 SCM User ID: u7609
  
 ADF 2019  RunTime: Feb12-2023 21:59:39  Nodes: 1  Procs: 1

 Temporary files are created in /scratch/kid_0.1402224106

 Phosphorus (TZP, 1s frozen)



 ===========================
 A T T A C H E D   F I L E S
 ===========================
  
 CREATE - Data File:    TZP-P.1s
                        Phosphorus (TZP, 1s frozen)
 Core Potentials:
         file : t12.rel



 ===============================
 M O D E L   P A R A M E T E R S
 ===============================
  
 DENSITY FUNCTIONAL POTENTIAL (scf)
    LDA:                               PW92                                    == Not Default ==
    Gradient Corrections:              PBEc PBEx                               == Not Default ==

 SPIN  (restricted / unrestr.)
    Molecule:                          Restricted                               

 OTHER ASPECTS
    Relativistic Corrections:          scalar (ZORA,MAPA)                      == Not Default ==

    Nuclear Charge Density Model:      Point Charge Nuclei                      
    Core Treatment:                    Frozen Orbital(s)                        

    Hyperfine or Zeeman Interaction:   ---                                      



 =====================================
 S Y M M E T R Y ,   E L E C T R O N S
 =====================================
  
 Symmetry: ATOM

 Irreducible Representations, including subspecies
 -------------------------------------------------
 S
 P:x  P:y  P:z
 D:z2  D:x2-y2  D:xy  D:xz  D:yz
 F:z3  F:z  F:xyz  F:z2x  F:z2y  F:x  F:y


 Configuration of Valence Electrons
 ==================================

          Occupation Numbers
          -------------------------------------------------
 S        2*2
 P        6 3
 D        0
 F        0
          -------------------------------------------------

 Total:   13

 Net Charge: 0 (Nuclei minus Electrons)

 Preset values for MO occupations will be applied through SCF cycle no. 1000000
 Thereafter, the program will assign electrons to MOs that are spatially
 similar to the occupied MOs in a "reference" cycle ("KeepOrbitals").
 The reference cycle is always the PREVIOUS cycle: it will evolve with
 the SCF procedure.



 ================================
 (Slater-type)  F U N C T I O N S  ***  (Basis and Fit)  ***
 ================================
  

 Atom Type    1  (P)
 ==============

 Valence Basis Sets:  12
 -----------------------
   1 S   12.550000
   2 S    5.600000
   2 S    4.050000
   2 P    7.450000
   2 P    4.100000
   3 S    1.300000
   3 S    1.850000
   3 S    2.650000
   3 P    0.850000
   3 P    1.300000
   3 P    2.050000
   3 D    1.900000

 Frozen Core Shells
 ------------------
    S:  1


 BAS: List of all Elementary Cartesian Basis Functions
 =====================================================

 The numbering in the list below (to the right of the function characteristics) is referred
 to in print-outs of MO eigenvectors and Mulliken populations in the BAS representation
 (as contrasted to the SFO representation).

 Notes:
 1. The functions are characterized by a polynomial prefactor (powers of x,y,z and r) and
    an exponential decay factor alpha.
 2. Since the basis sets are specific for an atom TYPE, the individual functions occur on
    all atoms of that type.
 3. The word 'Core' in the left margin signals that it is a Core Function (CF) : not a
    degree of freedom in the valence set, but only used to ensure orthogonalization of
    the other valence basis functions on the frozen Core Orbitals.


 (power of) X  Y  Z  R     Alpha  on Atom
            ==========     =====     ==========

 P                                    1
                                  ---------------------------------------------------------------------------
    Core    0  0  0  0    12.550      1
            0  0  0  1     5.600      2
            0  0  0  1     4.050      3
            1  0  0  0     7.450      4
            0  1  0  0     7.450      5
            0  0  1  0     7.450      6
            1  0  0  0     4.100      7
            0  1  0  0     4.100      8
            0  0  1  0     4.100      9
            0  0  0  2     1.300     10
            0  0  0  2     1.850     11
            0  0  0  2     2.650     12
            1  0  0  1     0.850     13
            0  1  0  1     0.850     14
            0  0  1  1     0.850     15
            1  0  0  1     1.300     16
            0  1  0  1     1.300     17
            0  0  1  1     1.300     18
            1  0  0  1     2.050     19
            0  1  0  1     2.050     20
            0  0  1  1     2.050     21
            2  0  0  0     1.900     22
            1  1  0  0     1.900     23
            1  0  1  0     1.900     24
            0  2  0  0     1.900     25
            0  1  1  0     1.900     26
            0  0  2  0     1.900     27

 Total number of charge fitting functions (nprimf)       106
 Total number of Cartesian basis functions (naos)         27
 Total number of Cartesian core functions  (ncos)          1



 BAS: List of all Elementary Cartesian Basis Functions
 =====================================================

 The numbering in the list below (to the right of the function characteristics) is referred
 to in print-outs of MO eigenvectors and Mulliken populations in the BAS representation
 (as contrasted to the SFO representation).

 Notes:
 1. The functions are characterized by a polynomial prefactor (powers of x,y,z and r) and
    an exponential decay factor alpha.
 2. Since the basis sets are specific for an atom TYPE, the individual functions occur on
    all atoms of that type.
 3. The word 'Core' in the left margin signals that it is a Core Function (CF) : not a
    degree of freedom in the valence set, but only used to ensure orthogonalization of
    the other valence basis functions on the frozen Core Orbitals.


 (power of) X  Y  Z  R     Alpha  on Atom
            ==========     =====     ==========

 P                                    1
                                  ---------------------------------------------------------------------------
    Core    0  0  0  0    12.550      1
            0  0  0  1     5.600      2
            0  0  0  1     4.050      3
            1  0  0  0     7.450      4
            0  1  0  0     7.450      5
            0  0  1  0     7.450      6
            1  0  0  0     4.100      7
            0  1  0  0     4.100      8
            0  0  1  0     4.100      9
            0  0  0  2     1.300     10
            0  0  0  2     1.850     11
            0  0  0  2     2.650     12
            1  0  0  1     0.850     13
            0  1  0  1     0.850     14
            0  0  1  1     0.850     15
            1  0  0  1     1.300     16
            0  1  0  1     1.300     17
            0  0  1  1     1.300     18
            1  0  0  1     2.050     19
            0  1  0  1     2.050     20
            0  0  1  1     2.050     21
            2  0  0  0     1.900     22
            1  1  0  0     1.900     23
            1  0  1  0     1.900     24
            0  2  0  0     1.900     25
            0  1  1  0     1.900     26
            0  0  2  0     1.900     27
1
 ***************************************************************************************************



                                              ***********************
                                              *  T E C H N I C A L  *
                                              ***********************
  



 =============================================================
 P A R A L L E L I Z A T I O N  and  V E C T O R I Z A T I O N
 =============================================================
  
 Nr of parallel processes:                                1
 Maximum vector length in NumInt loops:                 128



 =====================
 S C F   U P D A T E S
 =====================
  
 Max. nr. of cycles:                               300
 Convergence criterion:                              0.0000000100
   secondary criterion:                              0.0000000100

 Mix parameter (when DIIS does not apply):           0.2000000000
 Special mix parameter for the first cycle:          1.0000000000
 Mixed ADIIS+SDIIS will be used                  
    Max number of expansion vectors:                10
    Pure ADIIS when Max([F,P]) is above              0.1000000000
    Pure SDIIS when Max([F,P]) is below              0.0010000000
 Automatic ElectronSmearing (in case of problematic SCF convergence) disabled



 =================
 P R E C I S I O N  ***  (General: NumInt, NeglectFunctionTails, ...)  ***
 =================
  

 NumInt:           Target precision:                12.0000000000
 -------           Initial precision:               10.0000000000
                   Min. precision (optimization):   10.0000000000

 Neglect Functions:          Basis functions:        0.1000000000E-13
 ------------------          Fit functions:          0.1000000000E-13



 ===========================
 L I N E A R   S C A L I N G
 ===========================
  

 Cut-off radii density fit:                        0.1000000000E-97
 Overlap cut-off criterion AO matrix elements:     0.1000000000E-97
 Cut-offs for Coulomb potential and fitted density:0.1000000000E-97
 Cut-off criterion for Coulomb multipole terms:    0.1000000000E-97
 Progressive Convergence parameter:                 0.000000000    
1
 ***************************************************************************************************



                                            ***************************
                                            *  C O M P U T A T I O N  *
                                            ***************************
  

 Number of elements of the density matrix on this node (used, total):       378       378



 ===========================================
 Numerical Integration : Fuzzy Cells (Becke)
 ===========================================
  
 Becke grid quality: VERYGOOD       
  
 Lebedev angular grid order:             min:  13 max:  41
 Nr. of radial points:                   min:  76 max:  76

 Total nr. of points:         76
 Nr. of blocks:                1
 Block length:                76
 Nr. of dummy points:          0


 Test of Precision of the Numerical Integration Grid
 ===================================================

 Integral of the Total Core Density:                   1.99999999908170
 Relative Error:                                      -4.592E-10



 ========================
 Density Fitting (zlmFit)
 ========================
  
 ZlmFit Fit Quality: VERYGOOD       
  
 Max L-expansion:                        min:   0 max:   0
 Nr. of radial interpolation points:     min: 190 max: 190



 =====
 S C F  ***  ScaSCF  ***
 =====
  

 CYCLE    1
 SCF Error: norm([F,P])=      0.000000000000, max([F,P])=      0.000000000000
 orbitals (Q,E):
 ---------------
 S :1...5            ( 2.00   -23.0992)  ( 2.00    -9.8031)  ( 0.00    -5.2886)  ( 0.00    -3.1440)
                     ( 0.00    -1.2993)
 P :1...5            ( 6.00   -22.3278)  ( 3.00    -9.2322)  ( 0.00    -4.8937)  ( 0.00    -3.0142)
                     ( 0.00    -1.9614)
 D :1...1            ( 0.00    -6.4318)

 CYCLE    2
  SDIIS (wt  0.000):  1.0000  0.0000
 A-DIIS (wt  1.000):  0.1145  0.8855
  DIIS coefficients:  0.1145  0.8855
 SCF Error: norm([F,P])=     18.574199763001, max([F,P])=      5.729460424591
 orbitals (Q,E):
 ---------------
 S :1...3            ( 2.00    -4.5689)  ( 2.00    -0.5693)  ( 0.00    -0.0589)
 P :1...3            ( 6.00    -2.5820)  ( 3.00    -0.3376)  ( 0.00    -0.0879)
 D :1...1            ( 0.00     0.3219)

 CYCLE    3
  SDIIS (wt  0.000):  0.2387  0.7613
 A-DIIS (wt  1.000):  0.0000  1.0000
  DIIS coefficients:  0.0000  1.0000
 SCF Error: norm([F,P])=      7.892246338364, max([F,P])=      2.592954182835
 orbitals (Q,E):
 ---------------
 S :1...3            ( 2.00    -8.2146)  ( 2.00    -0.9843)  ( 0.00    -0.0433)
 P :1...3            ( 6.00    -6.5635)  ( 3.00    -0.6019)  ( 0.00    -0.0049)
 D :1...1            ( 0.00    -0.0107)

 CYCLE    4
  SDIIS (wt  0.000): -0.0871  0.2952  0.7919
 A-DIIS (wt  1.000):  0.0000  0.1757  0.8243
  DIIS coefficients:  0.0000  0.1757  0.8243
 SCF Error: norm([F,P])=      4.387176641077, max([F,P])=      1.761626650861
 orbitals (Q,E):
 ---------------
 S :1...3            ( 2.00    -5.8126)  ( 2.00    -0.3504)  ( 0.00     0.1791)
 P :1...3            ( 6.00    -3.9508)  ( 3.00    -0.0835)  ( 0.00     0.1310)
 D :1...1            ( 0.00     0.5508)

 CYCLE    5
  SDIIS (wt  0.000): -0.0109 -0.0602  0.1941  0.8770
 A-DIIS (wt  1.000):  0.0000  0.0000  0.0000  1.0000
  DIIS coefficients:  0.0000  0.0000  0.0000  1.0000
 SCF Error: norm([F,P])=      1.324345584458, max([F,P])=      0.466956153840
 orbitals (Q,E):
 ---------------
 S :1...3            ( 2.00    -6.8907)  ( 2.00    -0.7073)  ( 0.00     0.0342)
 P :1...3            ( 6.00    -5.0922)  ( 3.00    -0.3650)  ( 0.00     0.0330)
 D :1...1            ( 0.00     0.1959)

 CYCLE    6
  SDIIS (wt  0.000):  0.0000 -0.0289 -0.0346  0.4584  0.6050
 A-DIIS (wt  1.000):  0.0000  0.0000  0.0000  0.3111  0.6889
  DIIS coefficients:  0.0000  0.0000  0.0000  0.3111  0.6889
 SCF Error: norm([F,P])=      0.894656609953, max([F,P])=      0.328552344502
 orbitals (Q,E):
 ---------------
 S :1...3            ( 2.00    -6.3109)  ( 2.00    -0.4896)  ( 0.00     0.1210)
 P :1...3            ( 6.00    -4.4823)  ( 3.00    -0.1842)  ( 0.00     0.0870)
 D :1...1            ( 0.00     0.4072)

 CYCLE    7
  SDIIS (wt  0.437):  0.0003 -0.0004 -0.0106 -0.0415  0.1385  0.9137
 A-DIIS (wt  0.563):  0.0000  0.0000  0.0000  0.0000  0.0000  1.0000
  DIIS coefficients:  0.0001 -0.0002 -0.0046 -0.0181  0.0605  0.9623
 SCF Error: norm([F,P])=      0.152753231532, max([F,P])=      0.056768903175
 orbitals (Q,E):
 ---------------
 S :1...3            ( 2.00    -6.4268)  ( 2.00    -0.5264)  ( 0.00     0.1084)
 P :1...3            ( 6.00    -4.6039)  ( 3.00    -0.2126)  ( 0.00     0.0772)
 D :1...1            ( 0.00     0.3702)

 CYCLE    8
  SDIIS (wt  0.777): -0.0000 -0.0007  0.0025  0.0136 -0.0400  0.1180  0.9067
 A-DIIS (wt  0.223):  0.0000  0.0000  0.0000  0.0000  0.0000  0.0410  0.9590
  DIIS coefficients: -0.0000 -0.0005  0.0019  0.0105 -0.0311  0.1008  0.9184
 SCF Error: norm([F,P])=      0.062117061218, max([F,P])=      0.023065151090
 orbitals (Q,E):
 ---------------
 S :1...3            ( 2.00    -6.3871)  ( 2.00    -0.5116)  ( 0.00     0.1144)
 P :1...3            ( 6.00    -4.5623)  ( 3.00    -0.2008)  ( 0.00     0.0809)
 D :1...1            ( 0.00     0.3849)

 CYCLE    9
  SDIIS (wt  0.976):  0.0000  0.0000 -0.0001 -0.0000 -0.0006  0.0067  0.1535  0.8406
 A-DIIS (wt  0.024):  0.0000  0.0000  0.0000  0.0000  0.0000  0.0000  0.0000  1.0000
  DIIS coefficients:  0.0000  0.0000 -0.0001 -0.0000 -0.0006  0.0065  0.1498  0.8445
 SCF Error: norm([F,P])=      0.008957667695, max([F,P])=      0.003406470825
 orbitals (Q,E):
 ---------------
 S :1...3            ( 2.00    -6.3923)  ( 2.00    -0.5136)  ( 0.00     0.1136)
 P :1...3            ( 6.00    -4.5677)  ( 3.00    -0.2024)  ( 0.00     0.0804)
 D :1...1            ( 0.00     0.3830)

 CYCLE   10
  SDIIS (wt  1.000): -0.0000  0.0000 -0.0000 -0.0000  0.0000  0.0002  0.0031  0.0372  0.9595
  DIIS coefficients: -0.0000  0.0000 -0.0000 -0.0000  0.0000  0.0002  0.0031  0.0372  0.9595
 SCF Error: norm([F,P])=      0.000163653333, max([F,P])=      0.000063717608
 orbitals (Q,E):
 ---------------
 S :1...3            ( 2.00    -6.3922)  ( 2.00    -0.5136)  ( 0.00     0.1136)
 P :1...3            ( 6.00    -4.5676)  ( 3.00    -0.2024)  ( 0.00     0.0804)
 D :1...1            ( 0.00     0.3830)

 CYCLE   11
  SDIIS (wt  1.000):  0.0000  0.0000 -0.0000 -0.0002 -0.0016 -0.0226  1.0244
  DIIS coefficients:  0.0000  0.0000 -0.0000 -0.0002 -0.0016 -0.0226  1.0244
 SCF Error: norm([F,P])=      0.000000175567, max([F,P])=      0.000000090743
 orbitals (Q,E):
 ---------------
 S :1...3            ( 2.00    -6.3922)  ( 2.00    -0.5136)  ( 0.00     0.1136)
 P :1...3            ( 6.00    -4.5676)  ( 3.00    -0.2024)  ( 0.00     0.0804)
 D :1...1            ( 0.00     0.3830)

 CYCLE   12
  SDIIS (wt  1.000): -0.0000 -0.0000 -0.0005 -0.0247  1.0252
  DIIS coefficients: -0.0000 -0.0000 -0.0005 -0.0247  1.0252
 SCF Error: norm([F,P])=      0.000000002285, max([F,P])=      0.000000001028
 orbitals (Q,E):
 ---------------
 S :1...3            ( 2.00    -6.3922)  ( 2.00    -0.5136)  ( 0.00     0.1136)
 P :1...3            ( 6.00    -4.5676)  ( 3.00    -0.2024)  ( 0.00     0.0804)
 D :1...1            ( 0.00     0.3830)

 SCF CONVERGED

 CYCLE   13
1
 ***************************************************************************************************



                                                *******************
                                                *  R E S U L T S  *
                                                *******************
  
 *** Using FIT density in Focky
  SDIIS (wt  1.000):  0.0000  0.0017  0.0326  0.9657
  DIIS coefficients:  0.0000  0.0017  0.0326  0.9657
 SCF Error: norm([F,P])=      0.000000000342, max([F,P])=      0.000000000172

 Scaled ZORA Orbital Energies, per Irrep and Spin:
 =================================================
                        Occup              E (au)              E (eV)       Diff (eV) with prev. cycle
                        -----      --------------------        ------       --------------------------
 S
               1        2.000     -0.63922369009056E+01      -173.942               8.75E-09
               2        2.000     -0.51357095789531E+00       -13.975               6.90E-09
               3        0.000      0.11360419341918E+00         3.091
               4        0.000      0.13218598554508E+01        35.970
               5        0.000      0.10430275582036E+02       283.822
 P
               1        6.000     -0.45676340295409E+01      -124.292               8.74E-09
               2        3.000     -0.20235270966723E+00        -5.506               5.88E-09
               3        0.000      0.80400995303665E-01         2.188
               4        0.000      0.71612464912880E+00        19.487
               5        0.000      0.95392466931961E+01       259.576
 D
               1        0.000      0.38299165710671E+00        10.422


 Partially Occupied:
               2 P                -0.20235270966723E+00
  
 HOMO :        2 S                -0.51357095789531E+00
 LUMO :        3 P                 0.80400995303665E-01
  


 Orbital Energies, all Irreps
 ========================================

 Irrep        no.  (spin)   Occup              E (au)                E (eV)
 ---------------------------------------------------------------------------
 S             1             2.00       -0.63922369009056E+01      -173.9416
 P             1             6.00       -0.45676340295409E+01      -124.2916
 S             2             2.00       -0.51357095789531E+00       -13.9750
 P             2             3.00       -0.20235270966723E+00        -5.5063
 P             3             0.00        0.80400995303665E-01         2.1878
 S             3             0.00        0.11360419341918E+00         3.0913
 D             1             0.00        0.38299165710671E+00        10.4217
 P             4             0.00        0.71612464912880E+00        19.4867
 S             4             0.00        0.13218598554508E+01        35.9696
 P             5             0.00        0.95392466931961E+01       259.5761
 S             5             0.00        0.10430275582036E+02       283.8222


 Scaled ZORA Orbital Energies of the Core Orbitals:
 ==================================================

 (Note that the atoms are grouped by atomtype, see the labels, and may hence NOT be in input order)

 AtomType  Orbital  Atom                   E (au)                        E (eV)
 --------  -------  ----           --------------------        ----------------
 P           1S        1          -0.76588588395026E+02               -2084.082



 =======================================
 M U L L I K E N   P O P U L A T I O N S
 =======================================
  
 The survey below gives for each atom:
 a) the total charge (Z minus electrons)
 b) the net spin polarization (nr of electrons spin-A minus spin-B)
 c) for each spin the atomic electron valence density (integrated) per L-value.

 Atom              Charge    Spin density          S         P         D         F
 ----              ------    ------------       ------    ------    ------    ------
 1 P              -0.0000                       4.0000    9.0000    0.0000    0.0000

 Populations of individual BAS functions
 ----------------------------------------
 1 P           -0.0481  1.4990  0.5077  0.7973  0.7973  0.7973  1.2052  1.2052  1.2052  0.3372
                1.0986  0.6057  0.1369  0.1369  0.1369  0.4144  0.4144  0.4144  0.4462  0.4462
                0.4462  0.0000  0.0000  0.0000  0.0000  0.0000  0.0000

 Gross Charges per Atom (Z minus electrons)
 ==========================================
            -0.0000
 Net Total: -0.00000000



 =======================================================================
 Electrostatic potential at the Nuclei due to electrons and other nuclei
 =======================================================================
  
         Atom                  Potential
         ----                  ---------
     1)   P                  54.30955117
 
 
 ========================
 No memory problems found
 ========================
 
 Maximum number of active allocate calls:         389
 
 *******************************************************************************

                             A D F   E X I T
 NORMAL TERMINATION



 =================
 Timing Statistics
 =================
  
 Total Used :                     CPU=        0.57      System=        0.05     Elapsed=        0.67

 Calls  Section                     ( Mean, Percentage )
 ---------------------------------------------------------------------------------------------------
     3  ><      ................      0.00    0.00             0.00    7.69             0.00    0.64
     1  INIT    ................      0.06   11.27             0.01   15.39             0.09   12.83
     1  GEOMET  ................      0.01    2.11             0.01   15.38             0.03    4.21
     1  INPUTA  ................      0.00    0.70             0.00    0.00             0.00    0.54
     1  MAINSY  ................      0.00    0.70             0.01   15.39             0.02    2.25
     1  SYMFIT  ................      0.00    0.00             0.00    0.00             0.00    0.25
     1  CORORT  ................      0.00    0.00             0.00    0.00             0.00    0.24
     1  SYMORB  ................      0.00    0.70             0.00    0.00             0.00    0.15
     1  CLSMAT  ................      0.00    0.70             0.00    0.00             0.01    0.87
     1  ORTHON  ................      0.00    0.00             0.00    7.69             0.01    0.87
     1  GENPT   ................      0.02    3.52             0.00    0.00             0.02    2.90
     1  PTBAS   ................      0.00    0.70             0.00    0.00             0.01    0.80
    13  FOCKY   ................      0.03   65.49             0.00   30.77             0.03   59.55
    13  FOCKTR  ................      0.00    2.82             0.00    0.00             0.00    1.15
    13  SDIIS   ................      0.00    3.52             0.00    7.69             0.00    5.75
     1  COREPS  ................      0.02    4.23             0.00    0.00             0.02    3.73
     1  POPAN   ................      0.00    0.70             0.00    0.00             0.01    0.78
     1  DEBYE   ................      0.00    0.70             0.00    0.00             0.00    0.32
     1  EXIT PROCEDURE .........      0.01    2.11             0.00    0.00             0.01    2.17


 Currently Open Files (EXIT00)
 ====================

 Unit    Access Format  Status   Type       Ident (file)
 -------------------------------------------------------
   3      SEQ    FORM   TRANSP  NORMAL      LOGFILE
                                          ( logfile )

 ***************************************************************************************************
 (LOGFILE)
 <Feb12-2023> <21:59:38>  DIRAC 2019  RunTime: Feb12-2023 21:59:38  Nodes: 1  Procs: 1
 <Feb12-2023> <21:59:38>  NORMAL TERMINATION
 <Feb12-2023> <21:59:38>  END
 <Feb12-2023> <21:59:38>  ADF 2019  RunTime: Feb12-2023 21:59:38  Nodes: 1  Procs: 1
 <Feb12-2023> <21:59:38>  Hydrogen (TZP)
 <Feb12-2023> <21:59:38>  RunType   : CREATE
 <Feb12-2023> <21:59:38>  Net Charge: 0 (Nuclei minus Electrons)
 <Feb12-2023> <21:59:38>  Symmetry  : ATOM
  Coordinates
    Atom         X           Y           Z   (Angstrom)
    1.H         0.000000    0.000000    0.000000
 <Feb12-2023> <21:59:38>  >>>> CORORT
 <Feb12-2023> <21:59:38>  >>>> CLSMAT
 <Feb12-2023> <21:59:38>  >>>> ORTHON
 <Feb12-2023> <21:59:38>  >>>> GENPT
 <Feb12-2023> <21:59:38>  Block Length=  64
 <Feb12-2023> <21:59:38>  >>>> PTBAS
 <Feb12-2023> <21:59:38>  >>>> CYCLE
 <Feb12-2023> <21:59:39>              |Error|         MaxErr       Wt(A-DIIS)
 <Feb12-2023> <21:59:39>      1      0.00000000      0.00000000
 <Feb12-2023> <21:59:39>      2      0.03153787      0.03011049
 <Feb12-2023> <21:59:39>      3      0.00861799      0.00834303    100.0
 <Feb12-2023> <21:59:39>      4      0.00173235      0.00171862      0.7
 <Feb12-2023> <21:59:39>      5      0.00004367      0.00003977      0.0
 <Feb12-2023> <21:59:39>      6      0.00000238      0.00000216      0.0
 <Feb12-2023> <21:59:39>      7      0.00000001      0.00000001      0.0
 <Feb12-2023> <21:59:39>  SCF converged
 <Feb12-2023> <21:59:39>      8      0.00000000      0.00000000      0.0
 <Feb12-2023> <21:59:39>  >>>> POPAN
 <Feb12-2023> <21:59:39>  >>>> DEBYE
 <Feb12-2023> <21:59:39>  NORMAL TERMINATION
 <Feb12-2023> <21:59:39>  END
 <Feb12-2023> <21:59:39>  DIRAC 2019  RunTime: Feb12-2023 21:59:39  Nodes: 1  Procs: 1
 <Feb12-2023> <21:59:39>  NORMAL TERMINATION
 <Feb12-2023> <21:59:39>  END
 <Feb12-2023> <21:59:39>  ADF 2019  RunTime: Feb12-2023 21:59:39  Nodes: 1  Procs: 1
 <Feb12-2023> <21:59:39>  Phosphorus (TZP, 1s frozen)
 <Feb12-2023> <21:59:39>  RunType   : CREATE
 <Feb12-2023> <21:59:39>  Net Charge: 0 (Nuclei minus Electrons)
 <Feb12-2023> <21:59:39>  Symmetry  : ATOM
  Coordinates
    Atom         X           Y           Z   (Angstrom)
    1.P         0.000000    0.000000    0.000000
 <Feb12-2023> <21:59:39>  >>>> CORORT
 <Feb12-2023> <21:59:39>  >>>> CLSMAT
 <Feb12-2023> <21:59:39>  >>>> ORTHON
 <Feb12-2023> <21:59:39>  >>>> GENPT
 <Feb12-2023> <21:59:39>  Block Length=  76
 <Feb12-2023> <21:59:39>  >>>> PTBAS
 <Feb12-2023> <21:59:39>  >>>> CYCLE
 <Feb12-2023> <21:59:39>              |Error|         MaxErr       Wt(A-DIIS)
 <Feb12-2023> <21:59:39>      1      0.00000000      0.00000000
 <Feb12-2023> <21:59:39>      2     18.57419976      5.72946042    100.0
 <Feb12-2023> <21:59:39>      3      7.89224634      2.59295418    100.0
 <Feb12-2023> <21:59:40>      4      4.38717664      1.76162665    100.0
 <Feb12-2023> <21:59:40>      5      1.32434558      0.46695615    100.0
 <Feb12-2023> <21:59:40>      6      0.89465661      0.32855234    100.0
 <Feb12-2023> <21:59:40>      7      0.15275323      0.05676890     56.3
 <Feb12-2023> <21:59:40>      8      0.06211706      0.02306515     22.3
 <Feb12-2023> <21:59:40>      9      0.00895767      0.00340647      2.4
 <Feb12-2023> <21:59:40>     10      0.00016365      0.00006372      0.0
 <Feb12-2023> <21:59:40>     11      0.00000018      0.00000009      0.0
 <Feb12-2023> <21:59:40>     12      0.00000000      0.00000000      0.0
 <Feb12-2023> <21:59:40>  SCF converged
 <Feb12-2023> <21:59:40>     13      0.00000000      0.00000000      0.0
 <Feb12-2023> <21:59:40>  >>>> POPAN
 <Feb12-2023> <21:59:40>  >>>> DEBYE
 <Feb12-2023> <21:59:40>  NORMAL TERMINATION
 <Feb12-2023> <21:59:40>  END

 *******************************************************************************
 *                                                                             *
 *  -------------------------------------                                      *
 *   Amsterdam Density Functional  (ADF)         2019                          *
 *  -------------------------------------                                      *
 *                                               r74351 2019-04-25             *
 *                                                                             *
 *                                                                             *
 *                            =====================                            *
 *                            |                   |                            *
 *                            |     D I R A C     |                            *
 *                            |                   |                            *
 *                            =====================                            *
 *                                                                             *
 *                                                                             *
 *   Online information and documentation:  https://www.scm.com/support/       *
 *   E-mail:  support@scm.com   info@scm.com                                   *
 *                                                                             *
 *   Scientific publications using ADF results must be properly referenced     *
 *   See the User Manuals (or the web site) for recommended citations          *
 *   The terms and conditions of the End User License Agreement apply to       *
 *   the use of ADF, https://www.scm.com/license-terms/                        *
 *                                                                             *
 **********************  x86_64_linux_intel / intelmpi  ************************
 
 Licensed to: Dr. Carles Bo / Institute of Chemical Research of Catalonia ( (ICIQ) / Tarragona / Spain 2022-11-28 14:37:29
 SCM User ID: u7609
  
 DIRAC 2019  RunTime: Feb12-2023 21:59:40  Nodes: 1  Procs: 1

 Temporary files are created in /scratch/kid_0.153387161

1
 MOLYBDENUM ATOM 3d CORE RELATIVISTIC, Point Nuc, A and c fro
 N J RN H ZN XION ANUC CLIGHT
 5000   15100.00000000197.36710137 42.00000000  0.00000000   97.905406  0.1370360E+03
  PH   PHI     EPS        DEL        DELRVR
  0.30  0.30     2500.00  0.00001000  0.00001000
 IDIRC  NC1  NDEBU NPRIN  IPUN IRCOR IWCOR
   1   300     0     0     0     0     9
   XALPHA      XLATTER      RNUC
  0.70000000  0.00000000  0.00000000 Point Charge
   XN   XL   XJ      XE          XZ      XDELL
  1.0  0.0  0.5   -1500.000       2.000     0.00000
  2.0  0.0  0.5    -325.000       2.000     0.00000
  2.0  1.0  0.5    -325.000       2.000     0.00000
  2.0  1.0  1.5    -325.000       4.000     0.00000
  3.0  0.0  0.5     -70.000       2.000     0.00000
  3.0  1.0  0.5     -70.000       2.000     0.00000
  3.0  1.0  1.5     -70.000       4.000     0.00000
  3.0  2.0  1.5     -60.000       4.000     0.00000
  3.0  2.0  2.5     -60.000       6.000     0.00000
  4.0  0.0  0.5     -10.000       2.000     0.00000
  4.0  1.0  0.5     -10.000       2.000     0.00000
  4.0  1.0  1.5     -10.000       4.000     0.00000
  4.0  2.0  1.5      -1.000       4.000     0.00000
  4.0  2.0  2.5      -1.000       1.000     0.00000
  5.0  0.0  0.5      -0.500       1.000     0.00000
 ICORP=  0  NPCL=  0  DEMP=0.00  PEPS=0.000000
 R(1)=  0.1000000E-08 D=  0.1005080E+01 RNUC=  0.0000000E+00
 converged at cycle   41  DENSITY AVERAGING    0.2400
  MAXIMUM ERROR IN R.V(R) IS   0.93203452E-05
 Q,EY,EV,EZ,ESUM,ETOT,RHO  0.420000E+02 -0.161898E+03 -0.662509E+04 -0.978397E+04 -0.242700E+04 -0.404691E+04  0.342495E-11


 DIRAC CALCULATION
1                    MOLYBDENUM ATOM 3d CORE RELATIVISTIC, Point Nuc, A and c from libtc


 EXCHANGE COEFFICIENT=  0.7000000           TAIL CORRECTION=  0.           NUCLEAR RADIUS=  0.000E+00
0                       ORBITAL    N    L    J     ELECTRONS     EIGENVALUE                DELTA OF EIGENV.

                          1S1/2  1.0  0.0  0.5     2.000       -0.7276812E+03                 0.2822496E-04
                          2S1/2  2.0  0.0  0.5     2.000       -0.1028194E+03                 0.1725465E-04
                          2P1/2  2.0  1.0  0.5     2.000       -0.9468016E+02                 0.1864325E-04
                          2P3/2  2.0  1.0  1.5     4.000       -0.9076266E+02                 0.1832345E-04
                          3S1/2  3.0  0.0  0.5     2.000       -0.1747094E+02                 0.5979346E-05
                          3P1/2  3.0  1.0  0.5     2.000       -0.1436574E+02                 0.6275079E-05
                          3P3/2  3.0  1.0  1.5     4.000       -0.1371946E+02                 0.5984426E-05
                          3D3/2  3.0  2.0  1.5     4.000       -0.8203697E+01                 0.6709395E-05
                          3D5/2  3.0  2.0  2.5     6.000       -0.8081013E+01                 0.6610438E-05
                          4S1/2  4.0  0.0  0.5     2.000       -0.2338238E+01                 0.2446887E-06
                          4P1/2  4.0  1.0  0.5     2.000       -0.1452045E+01                 0.2971982E-06
                          4P3/2  4.0  1.0  1.5     4.000       -0.1358936E+01                 0.3186552E-06
                          4D3/2  4.0  2.0  1.5     4.000       -0.1184046E+00                 0.3378248E-06
                          4D5/2  4.0  2.0  2.5     1.000       -0.1108976E+00                 0.3342679E-06
                          5S1/2  5.0  0.0  0.5     1.000       -0.1320069E+00                 0.9757102E-07


                                        NUCLEAR CHARGE=   42.000000
                            INTEGRAL OF CHARGE DENSITY=   42.000000
                           SUM OF THE ORBITAL ENERGIES=  -2426.9970
                                          TOTAL ENERGY=  -4046.9128
                                        KINETIC ENERGY=   4198.0886
                             NUCLEAR ATTRACTION ENERGY=  -9783.9685
                             ELECTRON REPULSION ENERGY=   1660.3903
                                       EXCHANGE ENERGY=   -121.4232

 *******************************************************************************

                             D I R A C   E X I T
 NORMAL TERMINATION



 =================
 Timing Statistics
 =================
  
 Total Used :                     CPU=        0.45      System=        0.00     Elapsed=        0.48

 Calls  Section                     ( Mean, Percentage )
 ---------------------------------------------------------------------------------------------------
     2  ><      ................      0.00    0.00             0.00    0.00             0.00    0.00
     1  EXIT PROCEDURE .........      0.45  100.00             0.00  100.00             0.48  100.00


 Currently Open Files (EXIT00)
 ====================

 Unit    Access Format  Status   Type       Ident (file)
 -------------------------------------------------------
   3      SEQ    FORM   TRANSP  NORMAL      LOGFILE
                                          ( logfile )
 
Create Mo   file=TZP-Mo.3d
XC
  GGA PBE
End
relativistic ZORA
Corepotentials t12.rel
End

 *******************************************************************************
 *                                                                             *
 *  -------------------------------------                                      *
 *   Amsterdam Density Functional  (ADF)         2019                          *
 *  -------------------------------------                                      *
 *                                               r74351 2019-04-25             *
 *                                                                             *
 *                                                                             *
 *                              =================                              *
 *                              |               |                              *
 *                              |     A D F     |                              *
 *                              |               |                              *
 *                              =================                              *
 *                                                                             *
 *                                                                             *
 *   Online information and documentation:  https://www.scm.com/support/       *
 *   E-mail:  support@scm.com   info@scm.com                                   *
 *                                                                             *
 *   Scientific publications using ADF results must be properly referenced     *
 *   See the User Manuals (or the web site) for recommended citations          *
 *   The terms and conditions of the End User License Agreement apply to       *
 *   the use of ADF, https://www.scm.com/license-terms/                        *
 *                                                                             *
 **********************  x86_64_linux_intel / intelmpi  ************************
 
 Licensed to: Dr. Carles Bo / Institute of Chemical Research of Catalonia ( (ICIQ) / Tarragona / Spain 2022-11-28 14:37:29
 SCM User ID: u7609
  
 ADF 2019  RunTime: Feb12-2023 21:59:41  Nodes: 1  Procs: 1

 Temporary files are created in /scratch/kid_0.61825198

 Molybdenum (TZP, 3d frozen)



 ===========================
 A T T A C H E D   F I L E S
 ===========================
  
 CREATE - Data File:    TZP-Mo.3d
                        Molybdenum (TZP, 3d frozen)
 Core Potentials:
         file : t12.rel



 ===============================
 M O D E L   P A R A M E T E R S
 ===============================
  
 DENSITY FUNCTIONAL POTENTIAL (scf)
    LDA:                               PW92                                    == Not Default ==
    Gradient Corrections:              PBEc PBEx                               == Not Default ==

 SPIN  (restricted / unrestr.)
    Molecule:                          Restricted                               

 OTHER ASPECTS
    Relativistic Corrections:          scalar (ZORA,MAPA)                      == Not Default ==

    Nuclear Charge Density Model:      Point Charge Nuclei                      
    Core Treatment:                    Frozen Orbital(s)                        

    Hyperfine or Zeeman Interaction:   ---                                      



 =====================================
 S Y M M E T R Y ,   E L E C T R O N S
 =====================================
  
 Symmetry: ATOM

 Irreducible Representations, including subspecies
 -------------------------------------------------
 S
 P:x  P:y  P:z
 D:z2  D:x2-y2  D:xy  D:xz  D:yz
 F:z3  F:z  F:xyz  F:z2x  F:z2y  F:x  F:y


 Configuration of Valence Electrons
 ==================================

          Occupation Numbers
          -------------------------------------------------
 S        2 1
 P        6
 D        5
 F        0
          -------------------------------------------------

 Total:   14

 Net Charge: 0 (Nuclei minus Electrons)

 Preset values for MO occupations will be applied through SCF cycle no. 1000000
 Thereafter, the program will assign electrons to MOs that are spatially
 similar to the occupied MOs in a "reference" cycle ("KeepOrbitals").
 The reference cycle is always the PREVIOUS cycle: it will evolve with
 the SCF procedure.



 ================================
 (Slater-type)  F U N C T I O N S  ***  (Basis and Fit)  ***
 ================================
  

 Atom Type    1  (Mo)
 ==============

 Valence Basis Sets:  18
 -----------------------
   1 S   30.500000
   2 S   17.750000
   3 S    8.350000
   2 P   18.600000
   3 P    8.700000
   3 D   10.050000
   4 S    5.100000
   4 S    3.300000
   5 S    2.150000
   5 S    1.350000
   5 S    0.870000
   4 P    4.950000
   4 P    3.300000
   4 P    2.300000
   4 D    3.500000
   4 D    1.850000
   4 D    0.970000
   5 P    1.350000

 Frozen Core Shells
 ------------------
    S:  3
    P:  2
    D:  1


 BAS: List of all Elementary Cartesian Basis Functions
 =====================================================

 The numbering in the list below (to the right of the function characteristics) is referred
 to in print-outs of MO eigenvectors and Mulliken populations in the BAS representation
 (as contrasted to the SFO representation).

 Notes:
 1. The functions are characterized by a polynomial prefactor (powers of x,y,z and r) and
    an exponential decay factor alpha.
 2. Since the basis sets are specific for an atom TYPE, the individual functions occur on
    all atoms of that type.
 3. The word 'Core' in the left margin signals that it is a Core Function (CF) : not a
    degree of freedom in the valence set, but only used to ensure orthogonalization of
    the other valence basis functions on the frozen Core Orbitals.


 (power of) X  Y  Z  R     Alpha  on Atom
            ==========     =====     ==========

 Mo                                   1
                                  ---------------------------------------------------------------------------
    Core    0  0  0  0    30.500      1
    Core    0  0  0  1    17.750      2
    Core    0  0  0  2     8.350      3
    Core    1  0  0  0    18.600      4
    Core    0  1  0  0    18.600      5
    Core    0  0  1  0    18.600      6
    Core    1  0  0  1     8.700      7
    Core    0  1  0  1     8.700      8
    Core    0  0  1  1     8.700      9
    Core    2  0  0  0    10.050     10
    Core    1  1  0  0    10.050     11
    Core    1  0  1  0    10.050     12
    Core    0  2  0  0    10.050     13
    Core    0  1  1  0    10.050     14
    Core    0  0  2  0    10.050     15
            0  0  0  3     5.100     16
            0  0  0  3     3.300     17
            0  0  0  4     2.150     18
            0  0  0  4     1.350     19
            0  0  0  4     0.870     20
            1  0  0  2     4.950     21
            0  1  0  2     4.950     22
            0  0  1  2     4.950     23
            1  0  0  2     3.300     24
            0  1  0  2     3.300     25
            0  0  1  2     3.300     26
            1  0  0  2     2.300     27
            0  1  0  2     2.300     28
            0  0  1  2     2.300     29
            2  0  0  1     3.500     30
            1  1  0  1     3.500     31
            1  0  1  1     3.500     32
            0  2  0  1     3.500     33
            0  1  1  1     3.500     34
            0  0  2  1     3.500     35
            2  0  0  1     1.850     36
            1  1  0  1     1.850     37
            1  0  1  1     1.850     38
            0  2  0  1     1.850     39
            0  1  1  1     1.850     40
            0  0  2  1     1.850     41
            2  0  0  1     0.970     42
            1  1  0  1     0.970     43
            1  0  1  1     0.970     44
            0  2  0  1     0.970     45
            0  1  1  1     0.970     46
            0  0  2  1     0.970     47
            1  0  0  3     1.350     48
            0  1  0  3     1.350     49
            0  0  1  3     1.350     50

 Total number of charge fitting functions (nprimf)       230
 Total number of Cartesian basis functions (naos)         50
 Total number of Cartesian core functions  (ncos)         15



 BAS: List of all Elementary Cartesian Basis Functions
 =====================================================

 The numbering in the list below (to the right of the function characteristics) is referred
 to in print-outs of MO eigenvectors and Mulliken populations in the BAS representation
 (as contrasted to the SFO representation).

 Notes:
 1. The functions are characterized by a polynomial prefactor (powers of x,y,z and r) and
    an exponential decay factor alpha.
 2. Since the basis sets are specific for an atom TYPE, the individual functions occur on
    all atoms of that type.
 3. The word 'Core' in the left margin signals that it is a Core Function (CF) : not a
    degree of freedom in the valence set, but only used to ensure orthogonalization of
    the other valence basis functions on the frozen Core Orbitals.


 (power of) X  Y  Z  R     Alpha  on Atom
            ==========     =====     ==========

 Mo                                   1
                                  ---------------------------------------------------------------------------
    Core    0  0  0  0    30.500      1
    Core    0  0  0  1    17.750      2
    Core    0  0  0  2     8.350      3
    Core    1  0  0  0    18.600      4
    Core    0  1  0  0    18.600      5
    Core    0  0  1  0    18.600      6
    Core    1  0  0  1     8.700      7
    Core    0  1  0  1     8.700      8
    Core    0  0  1  1     8.700      9
    Core    2  0  0  0    10.050     10
    Core    1  1  0  0    10.050     11
    Core    1  0  1  0    10.050     12
    Core    0  2  0  0    10.050     13
    Core    0  1  1  0    10.050     14
    Core    0  0  2  0    10.050     15
            0  0  0  3     5.100     16
            0  0  0  3     3.300     17
            0  0  0  4     2.150     18
            0  0  0  4     1.350     19
            0  0  0  4     0.870     20
            1  0  0  2     4.950     21
            0  1  0  2     4.950     22
            0  0  1  2     4.950     23
            1  0  0  2     3.300     24
            0  1  0  2     3.300     25
            0  0  1  2     3.300     26
            1  0  0  2     2.300     27
            0  1  0  2     2.300     28
            0  0  1  2     2.300     29
            2  0  0  1     3.500     30
            1  1  0  1     3.500     31
            1  0  1  1     3.500     32
            0  2  0  1     3.500     33
[...]
 <Feb13-2023> <02:09:06>  energy change                      -0.00003547     0.00100000    T
 <Feb13-2023> <02:09:06>  constrained gradient max            0.00163154     0.00100000    F
 <Feb13-2023> <02:09:06>  constrained gradient rms            0.00040282     0.00066667    T
 <Feb13-2023> <02:09:06>  gradient max                        0.00163154
 <Feb13-2023> <02:09:06>  gradient rms                        0.00040282
 <Feb13-2023> <02:09:06>  cart. step max                      0.00420659     0.01000000    T
 <Feb13-2023> <02:09:06>  cart. step rms                      0.00143109     0.00666667    T
  Coordinates in Geometry Cycle 35
    Atom         X           Y           Z   (Angstrom)
    1.Mo        0.050757   -2.608756    2.520630
    2.P        -0.071155   -0.048131   -0.042971
    3.Mo        0.112421    2.533617   -2.480516
    4.Mo       -0.026200    2.621859    2.462579
    5.Mo        2.445968   -2.611405   -0.023772
    6.Mo        2.685936    2.484042   -0.140894
    7.Mo       -2.604290    2.453725    0.064236
    8.Mo       -2.650273   -2.483971   -0.104943
    9.Mo       -2.445565   -0.270984   -2.720686
   10.Mo       -2.493400    0.159946    2.662383
   11.Mo        2.512093   -0.169639    2.586743
   12.Mo        2.438270   -0.065164   -2.671548
   13.O         0.825064   -0.980160    0.847595
   14.O        -1.028949   -0.897018   -0.918191
   15.O         0.876100    0.824548   -0.942261
   16.O        -0.891422    0.904143    0.902338
   17.O        -3.002960   -1.173481    1.190353
   18.O         3.008086   -1.159439   -1.160069
   19.O        -3.058715    1.170678   -1.120212
   20.O         3.008638    1.219936    1.217792
   21.O         1.302994   -1.217441   -3.307771
   22.O         1.104319    1.172385    2.992707
   23.O        -1.159570    1.156636   -2.997248
   24.O        -1.172375   -1.177086    3.066173
   25.O        -1.169341    3.036740   -1.113179
   26.O        -1.211080   -3.070538    1.234554
   27.O         1.183924    3.115973    1.163258
   28.O         1.217282   -3.260701   -1.106487
   29.O         3.358672   -1.434740    1.544249
   30.O        -3.450066   -1.548329   -1.560335
   31.O         3.452462    1.541393   -1.489743
   32.O        -3.424277    1.448871    1.565595
   33.O         1.436714   -1.473215    3.450265
   34.O         1.513831    1.530986   -3.377718
   35.O        -1.508296    1.509681    3.467551
   36.O        -1.723612   -1.479267   -3.749385
   37.O        -1.555314   -3.592339   -1.284802
   38.O        -1.539472    3.350804    1.555145
   39.O         1.533304   -3.387205    1.593452
   40.O         1.497747    3.387887   -1.444540
   41.O        -0.218819   -3.781541    3.771902
   42.O         3.805309   -0.177141   -3.755730
   43.O        -0.193520    3.752542   -3.677132
   44.O         0.231291    3.792776    3.725368
   45.O         3.784702   -3.722986   -0.162074
   46.O         3.843613    3.737765    0.192037
   47.O        -3.802891    3.697900   -0.166667
   48.O        -3.903149   -3.638466    0.225586
   49.O        -3.794807    0.293557   -3.680827
   50.O        -3.717242   -0.193735    3.842791
   51.O         3.686019    0.186770    3.817431
   52.H        -0.590318   -3.341510   -1.268698
 <Feb13-2023> <02:09:07>  >>>> CORORT
 <Feb13-2023> <02:09:07>  >>>> CLSMAT
 <Feb13-2023> <02:09:07>  >>>> ORTHON
 <Feb13-2023> <02:09:07>  >>>> GENPT
 <Feb13-2023> <02:09:07>  Block Length= 128
 <Feb13-2023> <02:09:08>  >>>> PTBAS
 <Feb13-2023> <02:09:25>  combining surface points...
 <Feb13-2023> <02:09:25>  combining surface points...
 <Feb13-2023> <02:09:25>  combining surface points...
 <Feb13-2023> <02:09:25>  >>>> CYCLE
 <Feb13-2023> <02:09:38>              |Error|         MaxErr       Wt(A-DIIS)
 <Feb13-2023> <02:09:38>      1      0.14379392      0.00916831
 <Feb13-2023> <02:09:49>      2      0.69016861      0.04880121    100.0
 <Feb13-2023> <02:10:00>      3      0.18997353      0.01236410    100.0
 <Feb13-2023> <02:10:11>      4      0.11103397      0.00985844      8.9
 <Feb13-2023> <02:10:22>      5      0.29405562      0.02442616    100.0
 <Feb13-2023> <02:10:32>      6      0.10283870      0.01004540      9.1
 <Feb13-2023> <02:10:43>      7      0.06702085      0.00745855      6.5
 <Feb13-2023> <02:10:54>      8      0.02965728      0.00297374      2.0
 <Feb13-2023> <02:11:05>      9      0.01643940      0.00146875      0.5
 <Feb13-2023> <02:11:15>     10      0.00840427      0.00077928      0.0
 <Feb13-2023> <02:11:26>     11      0.00337268      0.00039223      0.0
 <Feb13-2023> <02:11:37>     12      0.00123989      0.00012779      0.0
 <Feb13-2023> <02:11:47>     13      0.00164982      0.00014600      0.0
 <Feb13-2023> <02:11:58>     14      0.00126973      0.00015407      0.0
 <Feb13-2023> <02:12:09>     15      0.00037094      0.00004820      0.0
 <Feb13-2023> <02:12:19>     16      0.00011266      0.00001006      0.0
 <Feb13-2023> <02:12:30>     17      0.00004715      0.00000523      0.0
 <Feb13-2023> <02:12:40>     18      0.00011945      0.00001234      0.0
 <Feb13-2023> <02:12:51>     19      0.00001489      0.00000209      0.0
 <Feb13-2023> <02:13:02>     20      0.00001942      0.00000202      0.0
 <Feb13-2023> <02:13:12>     21      0.00001293      0.00000127      0.0
 <Feb13-2023> <02:13:23>     22      0.00000676      0.00000069      0.0
 <Feb13-2023> <02:13:26>  SCF converged
 <Feb13-2023> <02:13:33>     23      0.00000162      0.00000014      0.0
 <Feb13-2023> <02:13:37>  >>>> TOTEN
 <Feb13-2023> <02:13:52>  >>>> POPAN
 <Feb13-2023> <02:13:52>  >>>> DEBYE
 <Feb13-2023> <02:13:52>  >>>> ENGRAD
 <Feb13-2023> <02:15:40>  current energy                              -16.21374065 Hartree
 <Feb13-2023> <02:15:40>  energy change                      -0.00001691     0.00100000    T
 <Feb13-2023> <02:15:40>  constrained gradient max            0.00121221     0.00100000    F
 <Feb13-2023> <02:15:40>  constrained gradient rms            0.00034446     0.00066667    T
 <Feb13-2023> <02:15:40>  gradient max                        0.00121221
 <Feb13-2023> <02:15:40>  gradient rms                        0.00034446
 <Feb13-2023> <02:15:40>  cart. step max                      0.00356535     0.01000000    T
 <Feb13-2023> <02:15:40>  cart. step rms                      0.00123066     0.00666667    T
  Coordinates in Geometry Cycle 36
    Atom         X           Y           Z   (Angstrom)
    1.Mo        0.050529   -2.609938    2.519709
    2.P        -0.071545   -0.047806   -0.042628
    3.Mo        0.112923    2.535993   -2.478033
    4.Mo       -0.026499    2.620620    2.461092
    5.Mo        2.445574   -2.610029   -0.023903
    6.Mo        2.686522    2.482752   -0.139021
    7.Mo       -2.606601    2.453245    0.064087
    8.Mo       -2.651003   -2.483240   -0.106531
    9.Mo       -2.442715   -0.270262   -2.721624
   10.Mo       -2.491728    0.159547    2.662328
   11.Mo        2.512002   -0.170546    2.588215
   12.Mo        2.436529   -0.063623   -2.672256
   13.O         0.825285   -0.979394    0.847591
   14.O        -1.028686   -0.897136   -0.918310
   15.O         0.875401    0.825209   -0.942071
   16.O        -0.892398    0.904635    0.901969
   17.O        -3.001923   -1.172289    1.189755
   18.O         3.008599   -1.159177   -1.160746
   19.O        -3.059057    1.169814   -1.119967
   20.O         3.010163    1.218992    1.218717
   21.O         1.301601   -1.217151   -3.306493
   22.O         1.106582    1.172450    2.991671
   23.O        -1.158945    1.156685   -2.995383
   24.O        -1.170517   -1.176400    3.065396
   25.O        -1.170585    3.036498   -1.113469
   26.O        -1.210344   -3.071245    1.233453
   27.O         1.182742    3.114078    1.159692
   28.O         1.214180   -3.258788   -1.103960
   29.O         3.358252   -1.436370    1.545343
   30.O        -3.448319   -1.549909   -1.562390
   31.O         3.452440    1.541837   -1.489328
   32.O        -3.424231    1.449594    1.566405
   33.O         1.436078   -1.473312    3.451046
   34.O         1.512263    1.531563   -3.377793
   35.O        -1.506508    1.509685    3.467209
   36.O        -1.721052   -1.478710   -3.750343
   37.O        -1.555542   -3.593056   -1.284260
   38.O        -1.539517    3.350462    1.554656
   39.O         1.533715   -3.387443    1.595045
   40.O         1.498404    3.389081   -1.445470
   41.O        -0.220335   -3.780824    3.772650
   42.O         3.803614   -0.177309   -3.756188
   43.O        -0.195114    3.753382   -3.675897
   44.O         0.232626    3.793110    3.721924
   45.O         3.782718   -3.723299   -0.163395
   46.O         3.844158    3.736585    0.193363
   47.O        -3.805382    3.696798   -0.168580
   48.O        -3.903646   -3.637327    0.226548
   49.O        -3.793109    0.292888   -3.681269
   50.O        -3.714724   -0.195680    3.843081
   51.O         3.686057    0.187124    3.818435
   52.H        -0.590494   -3.341590   -1.265761
 <Feb13-2023> <02:15:40>  >>>> CORORT
 <Feb13-2023> <02:15:41>  >>>> CLSMAT
 <Feb13-2023> <02:15:41>  >>>> ORTHON
 <Feb13-2023> <02:15:41>  >>>> GENPT
 <Feb13-2023> <02:15:41>  Block Length= 128
 <Feb13-2023> <02:15:42>  >>>> PTBAS
 <Feb13-2023> <02:15:59>  combining surface points...
 <Feb13-2023> <02:15:59>  combining surface points...
 <Feb13-2023> <02:15:59>  combining surface points...
 <Feb13-2023> <02:15:59>  >>>> CYCLE
 <Feb13-2023> <02:16:11>              |Error|         MaxErr       Wt(A-DIIS)
 <Feb13-2023> <02:16:11>      1      0.14369827      0.00925752
 <Feb13-2023> <02:16:23>      2      0.69216011      0.04888605    100.0
 <Feb13-2023> <02:16:34>      3      0.19328728      0.01266555    100.0
 <Feb13-2023> <02:16:45>      4      0.11152995      0.00941585      8.5
 <Feb13-2023> <02:16:55>      5      0.29428481      0.02441710    100.0
 <Feb13-2023> <02:17:06>      6      0.11034631      0.01192339     11.0
 <Feb13-2023> <02:17:17>      7      0.06927104      0.00850455      7.6
 <Feb13-2023> <02:17:28>      8      0.03144872      0.00314802      2.2
 <Feb13-2023> <02:17:38>      9      0.01663889      0.00145653      0.5
 <Feb13-2023> <02:17:49>     10      0.00833046      0.00073041      0.0
 <Feb13-2023> <02:18:00>     11      0.00334651      0.00040155      0.0
 <Feb13-2023> <02:18:10>     12      0.00123307      0.00012902      0.0
 <Feb13-2023> <02:18:21>     13      0.00165933      0.00013316      0.0
 <Feb13-2023> <02:18:32>     14      0.00113185      0.00012869      0.0
 <Feb13-2023> <02:18:42>     15      0.00038734      0.00005438      0.0
 <Feb13-2023> <02:18:53>     16      0.00012887      0.00001161      0.0
 <Feb13-2023> <02:19:04>     17      0.00004440      0.00000538      0.0
 <Feb13-2023> <02:19:14>     18      0.00009259      0.00001118      0.0
 <Feb13-2023> <02:19:25>     19      0.00001715      0.00000199      0.0
 <Feb13-2023> <02:19:35>     20      0.00002140      0.00000218      0.0
 <Feb13-2023> <02:19:46>     21      0.00001586      0.00000157      0.0
 <Feb13-2023> <02:19:56>     22      0.00000745      0.00000075      0.0
 <Feb13-2023> <02:20:00>  SCF converged
 <Feb13-2023> <02:20:07>     23      0.00000207      0.00000017      0.0
 <Feb13-2023> <02:20:11>  >>>> TOTEN
 <Feb13-2023> <02:20:26>  >>>> POPAN
 <Feb13-2023> <02:20:26>  >>>> DEBYE
 <Feb13-2023> <02:20:26>  >>>> ENGRAD
 <Feb13-2023> <02:22:14>  current energy                              -16.21374610 Hartree
 <Feb13-2023> <02:22:14>  energy change                      -0.00000546     0.00100000    T
 <Feb13-2023> <02:22:14>  constrained gradient max            0.00094046     0.00100000    T
 <Feb13-2023> <02:22:14>  constrained gradient rms            0.00029119     0.00066667    T
 <Feb13-2023> <02:22:14>  gradient max                        0.00094046
 <Feb13-2023> <02:22:14>  gradient rms                        0.00029119
 <Feb13-2023> <02:22:14>  cart. step max                      0.00366273     0.01000000    T
 <Feb13-2023> <02:22:14>  cart. step rms                      0.00095374     0.00666667    T
 <Feb13-2023> <02:22:14>  GEOMETRY CONVERGED
 <Feb13-2023> <02:22:14>  Calculating Energy Terms for Final Geometry
  Coordinates in Geometry Cycle 36
    Atom         X           Y           Z   (Angstrom)
    1.Mo        0.050529   -2.609938    2.519709
    2.P        -0.071545   -0.047806   -0.042628
    3.Mo        0.112923    2.535993   -2.478033
    4.Mo       -0.026499    2.620620    2.461092
    5.Mo        2.445574   -2.610029   -0.023903
    6.Mo        2.686522    2.482752   -0.139021
    7.Mo       -2.606601    2.453245    0.064087
    8.Mo       -2.651003   -2.483240   -0.106531
    9.Mo       -2.442715   -0.270262   -2.721624
   10.Mo       -2.491728    0.159547    2.662328
   11.Mo        2.512002   -0.170546    2.588215
   12.Mo        2.436529   -0.063623   -2.672256
   13.O         0.825285   -0.979394    0.847591
   14.O        -1.028686   -0.897136   -0.918310
   15.O         0.875401    0.825209   -0.942071
   16.O        -0.892398    0.904635    0.901969
   17.O        -3.001923   -1.172289    1.189755
   18.O         3.008599   -1.159177   -1.160746
   19.O        -3.059057    1.169814   -1.119967
   20.O         3.010163    1.218992    1.218717
   21.O         1.301601   -1.217151   -3.306493
   22.O         1.106582    1.172450    2.991671
   23.O        -1.158945    1.156685   -2.995383
   24.O        -1.170517   -1.176400    3.065396
   25.O        -1.170585    3.036498   -1.113469
   26.O        -1.210344   -3.071245    1.233453
   27.O         1.182742    3.114078    1.159692
   28.O         1.214180   -3.258788   -1.103960
   29.O         3.358252   -1.436370    1.545343
   30.O        -3.448319   -1.549909   -1.562390
   31.O         3.452440    1.541837   -1.489328
   32.O        -3.424231    1.449594    1.566405
   33.O         1.436078   -1.473312    3.451046
   34.O         1.512263    1.531563   -3.377793
   35.O        -1.506508    1.509685    3.467209
   36.O        -1.721052   -1.478710   -3.750343
   37.O        -1.555542   -3.593056   -1.284260
   38.O        -1.539517    3.350462    1.554656
   39.O         1.533715   -3.387443    1.595045
   40.O         1.498404    3.389081   -1.445470
   41.O        -0.220335   -3.780824    3.772650
   42.O         3.803614   -0.177309   -3.756188
   43.O        -0.195114    3.753382   -3.675897
   44.O         0.232626    3.793110    3.721924
   45.O         3.782718   -3.723299   -0.163395
   46.O         3.844158    3.736585    0.193363
   47.O        -3.805382    3.696798   -0.168580
   48.O        -3.903646   -3.637327    0.226548
   49.O        -3.793109    0.292888   -3.681269
   50.O        -3.714724   -0.195680    3.843081
   51.O         3.686057    0.187124    3.818435
   52.H        -0.590494   -3.341590   -1.265761
 <Feb13-2023> <02:22:14>  >>>> CORORT
 <Feb13-2023> <02:22:15>  >>>> CLSMAT
 <Feb13-2023> <02:22:15>  >>>> ORTHON
 <Feb13-2023> <02:22:15>  >>>> GENPT
 <Feb13-2023> <02:22:15>  Block Length= 128
 <Feb13-2023> <02:22:16>  >>>> PTBAS
 <Feb13-2023> <02:22:33>  combining surface points...
 <Feb13-2023> <02:22:33>  combining surface points...
 <Feb13-2023> <02:22:33>  combining surface points...
 <Feb13-2023> <02:22:33>  >>>> CYCLE
 <Feb13-2023> <02:22:45>              |Error|         MaxErr       Wt(A-DIIS)
 <Feb13-2023> <02:22:45>      1      0.14274490      0.01210151
 <Feb13-2023> <02:22:57>      2      0.69028679      0.06279901    100.0
 <Feb13-2023> <02:23:08>      3      0.18288814      0.01507993    100.0
 <Feb13-2023> <02:23:19>      4      0.11284589      0.01114467     10.2
 <Feb13-2023> <02:23:29>      5      0.29765294      0.03063823    100.0
 <Feb13-2023> <02:23:40>      6      0.09792555      0.00938291      8.5
 <Feb13-2023> <02:23:51>      7      0.06834010      0.00673358      5.8
 <Feb13-2023> <02:24:02>      8      0.02814046      0.00268056      1.7
 <Feb13-2023> <02:24:12>      9      0.01639197      0.00141466      0.4
 <Feb13-2023> <02:24:23>     10      0.00850099      0.00103412      0.0
 <Feb13-2023> <02:24:34>     11      0.00350050      0.00036966      0.0
 <Feb13-2023> <02:24:44>     12      0.00123485      0.00011672      0.0
 <Feb13-2023> <02:24:55>     13      0.00161379      0.00016274      0.0
 <Feb13-2023> <02:25:06>     14      0.00104127      0.00012758      0.0
 <Feb13-2023> <02:25:16>     15      0.00031459      0.00003859      0.0
 <Feb13-2023> <02:25:27>     16      0.00011324      0.00001096      0.0
 <Feb13-2023> <02:25:37>     17      0.00004466      0.00000563      0.0
 <Feb13-2023> <02:25:48>     18      0.00015496      0.00001519      0.0
 <Feb13-2023> <02:25:59>     19      0.00001329      0.00000186      0.0
 <Feb13-2023> <02:26:09>     20      0.00001923      0.00000191      0.0
 <Feb13-2023> <02:26:20>     21      0.00000888      0.00000080      0.0
 <Feb13-2023> <02:26:23>  SCF converged
 <Feb13-2023> <02:26:30>     22      0.00000614      0.00000078      0.0
 <Feb13-2023> <02:26:39>  >>>> TOTEN
 <Feb13-2023> <02:27:14>  QTAIM: determining topology...
 <Feb13-2023> <02:27:42>  >>>> POPAN
 <Feb13-2023> <02:27:42>  >>>> DEBYE
 <Feb13-2023> <02:27:42>  >>>> AMETS
 <Feb13-2023> <02:27:42>  >>>> POPUL
 <Feb13-2023> <02:27:42>   Bond Energy         -16.21374610 a.u.
 <Feb13-2023> <02:27:42>   Bond Energy        -441.19847983 eV
 <Feb13-2023> <02:27:42>   Bond Energy      -10174.28       kcal/mol
 <Feb13-2023> <02:27:43>  >>>> ENHESS
 <Feb13-2023> <02:28:51>  === NUCLEUS:     1
 <Feb13-2023> <02:42:51>  === NUCLEUS:     2
 <Feb13-2023> <02:55:05>  === NUCLEUS:     3
 <Feb13-2023> <03:07:18>  === NUCLEUS:     4
 <Feb13-2023> <03:19:33>  === NUCLEUS:     5
 <Feb13-2023> <03:31:59>  === NUCLEUS:     6
 <Feb13-2023> <03:43:59>  === NUCLEUS:     7
 <Feb13-2023> <03:56:11>  === NUCLEUS:     8
 <Feb13-2023> <04:08:23>  === NUCLEUS:     9
 <Feb13-2023> <04:20:23>  === NUCLEUS:    10
 <Feb13-2023> <04:32:36>  === NUCLEUS:    11
 <Feb13-2023> <04:44:48>  === NUCLEUS:    12
 <Feb13-2023> <04:56:46>  === NUCLEUS:    13
 <Feb13-2023> <05:08:28>  === NUCLEUS:    14
 <Feb13-2023> <05:20:10>  === NUCLEUS:    15
 <Feb13-2023> <05:31:52>  === NUCLEUS:    16
 <Feb13-2023> <05:43:34>  === NUCLEUS:    17
 <Feb13-2023> <05:55:03>  === NUCLEUS:    18
 <Feb13-2023> <06:06:31>  === NUCLEUS:    19
 <Feb13-2023> <06:17:47>  === NUCLEUS:    20
 <Feb13-2023> <06:29:30>  === NUCLEUS:    21
 <Feb13-2023> <06:40:58>  === NUCLEUS:    22
 <Feb13-2023> <06:52:27>  === NUCLEUS:    23
 <Feb13-2023> <07:03:56>  === NUCLEUS:    24
 <Feb13-2023> <07:15:39>  === NUCLEUS:    25
 <Feb13-2023> <07:27:09>  === NUCLEUS:    26
 <Feb13-2023> <07:38:53>  === NUCLEUS:    27
 <Feb13-2023> <07:50:36>  === NUCLEUS:    28
 <Feb13-2023> <08:01:51>  === NUCLEUS:    29
 <Feb13-2023> <08:13:21>  === NUCLEUS:    30
 <Feb13-2023> <08:24:37>  === NUCLEUS:    31
 <Feb13-2023> <08:36:06>  === NUCLEUS:    32
 <Feb13-2023> <08:47:46>  === NUCLEUS:    33
 <Feb13-2023> <08:59:15>  === NUCLEUS:    34
 <Feb13-2023> <09:10:44>  === NUCLEUS:    35
 <Feb13-2023> <09:22:13>  === NUCLEUS:    36
 <Feb13-2023> <09:33:27>  === NUCLEUS:    37
 <Feb13-2023> <09:44:56>  === NUCLEUS:    38
 <Feb13-2023> <09:56:24>  === NUCLEUS:    39
 <Feb13-2023> <10:08:06>  === NUCLEUS:    40
 <Feb13-2023> <10:19:34>  === NUCLEUS:    41
 <Feb13-2023> <10:30:49>  === NUCLEUS:    42
 <Feb13-2023> <10:42:17>  === NUCLEUS:    43
 <Feb13-2023> <10:53:17>  === NUCLEUS:    44
 <Feb13-2023> <11:04:45>  === NUCLEUS:    45
 <Feb13-2023> <11:16:15>  === NUCLEUS:    46
 <Feb13-2023> <11:27:45>  === NUCLEUS:    47
 <Feb13-2023> <11:39:14>  === NUCLEUS:    48
 <Feb13-2023> <11:50:43>  === NUCLEUS:    49
 <Feb13-2023> <12:01:58>  === NUCLEUS:    50
 <Feb13-2023> <12:13:27>  === NUCLEUS:    51
 <Feb13-2023> <12:24:55>  === NUCLEUS:    52
 <Feb13-2023> <12:36:10>  >>>> CALC_HESS_PMAT
 <Feb13-2023> <12:42:05>  >>>> CALC_HESS_WMAT
 <Feb13-2023> <12:42:40>  NORMAL TERMINATION
 <Feb13-2023> <12:42:41>  END
