
 *******************************************************************************
 *                                                                             *
 *  -------------------------------------                                      *
 *   Amsterdam Density Functional  (ADF)         2019                          *
 *  -------------------------------------                                      *
 *                                               r74351 2019-04-25             *
 *                                                                             *
 *                                                                             *
 *                            =====================                            *
 *                            |                   |                            *
 *                            |     D I R A C     |                            *
 *                            |                   |                            *
 *                            =====================                            *
 *                                                                             *
 *                                                                             *
 *   Online information and documentation:  https://www.scm.com/support/       *
 *   E-mail:  support@scm.com   info@scm.com                                   *
 *                                                                             *
 *   Scientific publications using ADF results must be properly referenced     *
 *   See the User Manuals (or the web site) for recommended citations          *
 *   The terms and conditions of the End User License Agreement apply to       *
 *   the use of ADF, https://www.scm.com/license-terms/                        *
 *                                                                             *
 **********************  x86_64_linux_intel / intelmpi  ************************
 
 Licensed to: Dr. Carles Bo / Institute of Chemical Research of Catalonia ( (ICIQ) / Tarragona / Spain 2022-11-28 14:37:29
 SCM User ID: u7609
  
 DIRAC 2019  RunTime: Feb21-2023 18:55:49  Nodes: 1  Procs: 1

 Temporary files are created in /scratch/kid_0.465342906

1
 HYDROGEN ATOM RELATIVISTIC, Point Nuc, A and c from libtc   
 N J RN H ZN XION ANUC CLIGHT
 5000    1100.00000000197.36710137  1.00000000  0.00000000    1.007825  0.1370360E+03
  PH   PHI     EPS        DEL        DELRVR
  0.30  0.30     2500.00  0.00001000  0.00001000
 IDIRC  NC1  NDEBU NPRIN  IPUN IRCOR IWCOR
   1   300     0     0     0     0     0
   XALPHA      XLATTER      RNUC
  0.70000000  0.00000000  0.00000000 Point Charge
   XN   XL   XJ      XE          XZ      XDELL
  1.0  0.0  0.5      -1.000       1.000     0.00000
 ICORP=  0  NPCL=  0  DEMP=0.00  PEPS=0.000000
 R(1)=  0.1000000E-08 D=  0.1005080E+01 RNUC=  0.0000000E+00
 converged at cycle   32  DENSITY AVERAGING    0.2400
  MAXIMUM ERROR IN R.V(R) IS   0.79874357E-05
 Q,EY,EV,EZ,ESUM,ETOT,RHO  0.100000E+01 -0.266614E+00 -0.619969E+00 -0.910779E+00 -0.203940E+00 -0.415998E+00  0.337036E-17


 DIRAC CALCULATION
1                    HYDROGEN ATOM RELATIVISTIC, Point Nuc, A and c from libtc


 EXCHANGE COEFFICIENT=  0.7000000           TAIL CORRECTION=  0.           NUCLEAR RADIUS=  0.000E+00
0                       ORBITAL    N    L    J     ELECTRONS     EIGENVALUE                DELTA OF EIGENV.

                          1S1/2  1.0  0.0  0.5     1.000       -0.2039397E+00                 0.2720093E-06


                                        NUCLEAR CHARGE=    1.000000
                            INTEGRAL OF CHARGE DENSITY=    1.000000
                           SUM OF THE ORBITAL ENERGIES=     -0.2039
                                          TOTAL ENERGY=     -0.4160
                                        KINETIC ENERGY=      0.4160
                             NUCLEAR ATTRACTION ENERGY=     -0.9108
                             ELECTRON REPULSION ENERGY=      0.2787
                                       EXCHANGE ENERGY=     -0.2000

 *******************************************************************************

                             D I R A C   E X I T
 NORMAL TERMINATION



 =================
 Timing Statistics
 =================
  
 Total Used :                     CPU=        0.07      System=        0.01     Elapsed=        0.08

 Calls  Section                     ( Mean, Percentage )
 ---------------------------------------------------------------------------------------------------
     2  ><      ................      0.00    0.00             0.00    0.00             0.00    0.01
     1  EXIT PROCEDURE .........      0.07  100.00             0.01  100.00             0.08   99.99


 Currently Open Files (EXIT00)
 ====================

 Unit    Access Format  Status   Type       Ident (file)
 -------------------------------------------------------
   3      SEQ    FORM   TRANSP  NORMAL      LOGFILE
                                          ( logfile )
 
Create H   file=TZP-H
XC
  GGA PBE
End
relativistic ZORA
Corepotentials t12.rel
End

 *******************************************************************************
 *                                                                             *
 *  -------------------------------------                                      *
 *   Amsterdam Density Functional  (ADF)         2019                          *
 *  -------------------------------------                                      *
 *                                               r74351 2019-04-25             *
 *                                                                             *
 *                                                                             *
 *                              =================                              *
 *                              |               |                              *
 *                              |     A D F     |                              *
 *                              |               |                              *
 *                              =================                              *
 *                                                                             *
 *                                                                             *
 *   Online information and documentation:  https://www.scm.com/support/       *
 *   E-mail:  support@scm.com   info@scm.com                                   *
 *                                                                             *
 *   Scientific publications using ADF results must be properly referenced     *
 *   See the User Manuals (or the web site) for recommended citations          *
 *   The terms and conditions of the End User License Agreement apply to       *
 *   the use of ADF, https://www.scm.com/license-terms/                        *
 *                                                                             *
 **********************  x86_64_linux_intel / intelmpi  ************************
 
 Licensed to: Dr. Carles Bo / Institute of Chemical Research of Catalonia ( (ICIQ) / Tarragona / Spain 2022-11-28 14:37:29
 SCM User ID: u7609
  
 ADF 2019  RunTime: Feb21-2023 18:55:49  Nodes: 1  Procs: 1

 Temporary files are created in /scratch/kid_0.712937151

 Hydrogen (TZP)



 ===========================
 A T T A C H E D   F I L E S
 ===========================
  
 CREATE - Data File:    TZP-H
                        Hydrogen (TZP)
 Core Potentials:
         file : t12.rel



 ===============================
 M O D E L   P A R A M E T E R S
 ===============================
  
 DENSITY FUNCTIONAL POTENTIAL (scf)
    LDA:                               PW92                                    == Not Default ==
    Gradient Corrections:              PBEc PBEx                               == Not Default ==

 SPIN  (restricted / unrestr.)
    Molecule:                          Restricted                               

 OTHER ASPECTS
    Relativistic Corrections:          scalar (ZORA,MAPA)                      == Not Default ==

    Nuclear Charge Density Model:      Point Charge Nuclei                      
    Core Treatment:                    Frozen Orbital(s)                        

    Hyperfine or Zeeman Interaction:   ---                                      



 =====================================
 S Y M M E T R Y ,   E L E C T R O N S
 =====================================
  
 Symmetry: ATOM

 Irreducible Representations, including subspecies
 -------------------------------------------------
 S
 P:x  P:y  P:z
 D:z2  D:x2-y2  D:xy  D:xz  D:yz
 F:z3  F:z  F:xyz  F:z2x  F:z2y  F:x  F:y


 Configuration of Valence Electrons
 ==================================

          Occupation Numbers
          -------------------------------------------------
 S        1
 P        0
 D        0
 F        0
          -------------------------------------------------

 Total:   1

 Net Charge: 0 (Nuclei minus Electrons)

 Preset values for MO occupations will be applied through SCF cycle no. 1000000
 Thereafter, the program will assign electrons to MOs that are spatially
 similar to the occupied MOs in a "reference" cycle ("KeepOrbitals").
 The reference cycle is always the PREVIOUS cycle: it will evolve with
 the SCF procedure.



 ================================
 (Slater-type)  F U N C T I O N S  ***  (Basis and Fit)  ***
 ================================
  

 Atom Type    1  (H)
 ==============

 Valence Basis Sets:   4
 -----------------------
   1 S    0.690000
   1 S    0.920000
   1 S    1.580000
   2 P    1.250000


 BAS: List of all Elementary Cartesian Basis Functions
 =====================================================

 The numbering in the list below (to the right of the function characteristics) is referred
 to in print-outs of MO eigenvectors and Mulliken populations in the BAS representation
 (as contrasted to the SFO representation).

 Notes:
 1. The functions are characterized by a polynomial prefactor (powers of x,y,z and r) and
    an exponential decay factor alpha.
 2. Since the basis sets are specific for an atom TYPE, the individual functions occur on
    all atoms of that type.
 3. The word 'Core' in the left margin signals that it is a Core Function (CF) : not a
    degree of freedom in the valence set, but only used to ensure orthogonalization of
    the other valence basis functions on the frozen Core Orbitals.


 (power of) X  Y  Z  R     Alpha  on Atom
            ==========     =====     ==========

 H                                    1
                                  ---------------------------------------------------------------------------
            0  0  0  0     0.690      1
            0  0  0  0     0.920      2
            0  0  0  0     1.580      3
            1  0  0  0     1.250      4
            0  1  0  0     1.250      5
            0  0  1  0     1.250      6

 Total number of charge fitting functions (nprimf)        50
 Total number of Cartesian basis functions (naos)          6
 Total number of Cartesian core functions  (ncos)          0



 BAS: List of all Elementary Cartesian Basis Functions
 =====================================================

 The numbering in the list below (to the right of the function characteristics) is referred
 to in print-outs of MO eigenvectors and Mulliken populations in the BAS representation
 (as contrasted to the SFO representation).

 Notes:
 1. The functions are characterized by a polynomial prefactor (powers of x,y,z and r) and
    an exponential decay factor alpha.
 2. Since the basis sets are specific for an atom TYPE, the individual functions occur on
    all atoms of that type.
 3. The word 'Core' in the left margin signals that it is a Core Function (CF) : not a
    degree of freedom in the valence set, but only used to ensure orthogonalization of
    the other valence basis functions on the frozen Core Orbitals.


 (power of) X  Y  Z  R     Alpha  on Atom
            ==========     =====     ==========

 H                                    1
                                  ---------------------------------------------------------------------------
            0  0  0  0     0.690      1
            0  0  0  0     0.920      2
            0  0  0  0     1.580      3
            1  0  0  0     1.250      4
            0  1  0  0     1.250      5
            0  0  1  0     1.250      6
1
 ***************************************************************************************************



                                              ***********************
                                              *  T E C H N I C A L  *
                                              ***********************
  



 =============================================================
 P A R A L L E L I Z A T I O N  and  V E C T O R I Z A T I O N
 =============================================================
  
 Nr of parallel processes:                                1
 Maximum vector length in NumInt loops:                 128



 =====================
 S C F   U P D A T E S
 =====================
  
 Max. nr. of cycles:                               300
 Convergence criterion:                              0.0000000100
   secondary criterion:                              0.0000000100

 Mix parameter (when DIIS does not apply):           0.2000000000
 Special mix parameter for the first cycle:          1.0000000000
 Mixed ADIIS+SDIIS will be used                  
    Max number of expansion vectors:                10
    Pure ADIIS when Max([F,P]) is above              0.1000000000
    Pure SDIIS when Max([F,P]) is below              0.0010000000
 Automatic ElectronSmearing (in case of problematic SCF convergence) disabled



 =================
 P R E C I S I O N  ***  (General: NumInt, NeglectFunctionTails, ...)  ***
 =================
  

 NumInt:           Target precision:                12.0000000000
 -------           Initial precision:               10.0000000000
                   Min. precision (optimization):   10.0000000000

 Neglect Functions:          Basis functions:        0.1000000000E-13
 ------------------          Fit functions:          0.1000000000E-13



 ===========================
 L I N E A R   S C A L I N G
 ===========================
  

 Cut-off radii density fit:                        0.1000000000E-97
 Overlap cut-off criterion AO matrix elements:     0.1000000000E-97
 Cut-offs for Coulomb potential and fitted density:0.1000000000E-97
 Cut-off criterion for Coulomb multipole terms:    0.1000000000E-97
 Progressive Convergence parameter:                 0.000000000    
1
 ***************************************************************************************************



                                            ***************************
                                            *  C O M P U T A T I O N  *
                                            ***************************
  

 Number of elements of the density matrix on this node (used, total):        21        21



 ===========================================
 Numerical Integration : Fuzzy Cells (Becke)
 ===========================================
  
 Becke grid quality: VERYGOOD       
  
 Lebedev angular grid order:             min:  13 max:  41
 Nr. of radial points:                   min:  64 max:  64

 Total nr. of points:         64
 Nr. of blocks:                1
 Block length:                64
 Nr. of dummy points:          0


 Test of Precision of the Numerical Integration Grid
 ===================================================

 Integral of the Total Core Density:                   0.00000000000000



 ========================
 Density Fitting (zlmFit)
 ========================
  
 ZlmFit Fit Quality: VERYGOOD       
  
 Max L-expansion:                        min:   0 max:   0
 Nr. of radial interpolation points:     min: 120 max: 120



 =====
 S C F  ***  ScaSCF  ***
 =====
  

 CYCLE    1
 SCF Error: norm([F,P])=      0.000000000000, max([F,P])=      0.000000000000
 orbitals (Q,E):
 ---------------
 S :1...3            ( 1.00    -0.5000)  ( 0.00    -0.0900)  ( 0.00     1.2936)
 P :1...1            ( 0.00     0.1562)

 CYCLE    2
 SCF Error: norm([F,P])=      0.031537872292, max([F,P])=      0.030110494752
 orbitals (Q,E):
 ---------------
 S :1...2            ( 1.00    -0.2218)  ( 0.00     0.1019)
 P :1...1            ( 0.00     0.4189)

 CYCLE    3
  SDIIS (wt  0.000):  0.1996  0.8004
 A-DIIS (wt  1.000):  0.0000  1.0000
  DIIS coefficients:  0.0000  1.0000
 SCF Error: norm([F,P])=      0.008617989401, max([F,P])=      0.008343029399
 orbitals (Q,E):
 ---------------
 S :1...2            ( 1.00    -0.2422)  ( 0.00     0.0889)
 P :1...1            ( 0.00     0.4024)

 CYCLE    4
  SDIIS (wt  0.993):  0.1666  0.8334
 A-DIIS (wt  0.007):  0.0000  1.0000
  DIIS coefficients:  0.1654  0.8346
 SCF Error: norm([F,P])=      0.001732350026, max([F,P])=      0.001718616814
 orbitals (Q,E):
 ---------------
 S :1...2            ( 1.00    -0.2385)  ( 0.00     0.0908)
 P :1...1            ( 0.00     0.4054)

 CYCLE    5
  SDIIS (wt  1.000):  0.0236  0.9764
  DIIS coefficients:  0.0236  0.9764
 SCF Error: norm([F,P])=      0.000043673449, max([F,P])=      0.000039769875
 orbitals (Q,E):
 ---------------
 S :1...2            ( 1.00    -0.2386)  ( 0.00     0.0908)
 P :1...1            ( 0.00     0.4054)

 CYCLE    6
  SDIIS (wt  1.000): -0.0577  1.0577
  DIIS coefficients: -0.0577  1.0577
 SCF Error: norm([F,P])=      0.000002383805, max([F,P])=      0.000002158128
 orbitals (Q,E):
 ---------------
 S :1...2            ( 1.00    -0.2386)  ( 0.00     0.0908)
 P :1...1            ( 0.00     0.4054)

 CYCLE    7
  SDIIS (wt  1.000): -0.0032  1.0032
  DIIS coefficients: -0.0032  1.0032
 SCF Error: norm([F,P])=      0.000000007721, max([F,P])=      0.000000007228
 orbitals (Q,E):
 ---------------
 S :1...2            ( 1.00    -0.2386)  ( 0.00     0.0908)
 P :1...1            ( 0.00     0.4054)

 SCF CONVERGED

 CYCLE    8
1
 ***************************************************************************************************



                                                *******************
                                                *  R E S U L T S  *
                                                *******************
  
 *** Using FIT density in Focky
  SDIIS (wt  1.000):  0.0192  0.9808
  DIIS coefficients:  0.0192  0.9808
 SCF Error: norm([F,P])=      0.000000000151, max([F,P])=      0.000000000141

 Scaled ZORA Orbital Energies, per Irrep and Spin:
 =================================================
                        Occup              E (au)              E (eV)       Diff (eV) with prev. cycle
                        -----      --------------------        ------       --------------------------
 S
               1        1.000     -0.23861775226993E+00        -6.493               7.43E-09
               2        0.000      0.90791701709251E-01         2.471
               3        0.000      0.15217530108908E+01        41.409
 P
               1        0.000      0.40537978060393E+00        11.031


 Partially Occupied:
               1 S                -0.23861775226993E+00
  
 LUMO :        2 S                 0.90791701709251E-01
  


 Orbital Energies, all Irreps
 ========================================

 Irrep        no.  (spin)   Occup              E (au)                E (eV)
 ---------------------------------------------------------------------------
 S             1             1.00       -0.23861775226993E+00        -6.4931
 S             2             0.00        0.90791701709251E-01         2.4706
 P             1             0.00        0.40537978060393E+00        11.0309
 S             3             0.00        0.15217530108908E+01        41.4090


 All Electron Calculation, thus no Orbital Energies of the Core Orbitals are calculated



 =======================================
 M U L L I K E N   P O P U L A T I O N S
 =======================================
  
 The survey below gives for each atom:
 a) the total charge (Z minus electrons)
 b) the net spin polarization (nr of electrons spin-A minus spin-B)
 c) for each spin the atomic electron valence density (integrated) per L-value.

 Atom              Charge    Spin density          S         P         D         F
 ----              ------    ------------       ------    ------    ------    ------
 1 H              -0.0000                       1.0000    0.0000    0.0000    0.0000

 Populations of individual BAS functions
 ----------------------------------------
 1 H            0.2104  0.6788  0.1107  0.0000  0.0000  0.0000

 Gross Charges per Atom (Z minus electrons)
 ==========================================
            -0.0000
 Net Total: -0.00000000



 =======================================================================
 Electrostatic potential at the Nuclei due to electrons and other nuclei
 =======================================================================
  
         Atom                  Potential
         ----                  ---------
     1)   H                   0.94468022
 
 
 ========================
 No memory problems found
 ========================
 
 Maximum number of active allocate calls:         306
 
 *******************************************************************************

                             A D F   E X I T
 NORMAL TERMINATION



 =================
 Timing Statistics
 =================
  
 Total Used :                     CPU=        0.34      System=        0.04     Elapsed=        0.40

 Calls  Section                     ( Mean, Percentage )
 ---------------------------------------------------------------------------------------------------
     3  ><      ................      0.00    0.00             0.00   11.11             0.00    1.05
     1  INIT    ................      0.07   20.24             0.00   11.11             0.08   19.17
     1  GEOMET  ................      0.01    3.57             0.01   22.22             0.02    6.16
     1  INPUTA  ................      0.00    1.19             0.00    0.00             0.00    0.89
     1  MAINSY  ................      0.01    2.38             0.00    0.00             0.01    3.36
     1  SYMFIT  ................      0.00    1.19             0.00    0.00             0.00    0.40
     1  CORORT  ................      0.00    0.00             0.00    0.00             0.00    0.32
     1  SYMORB  ................      0.00    0.00             0.00    0.00             0.00    0.18
     1  CLSMAT  ................      0.00    1.19             0.00    0.00             0.01    1.33
     1  ORTHON  ................      0.00    1.19             0.00    0.00             0.00    1.25
     1  GENPT   ................      0.01    3.57             0.00    0.00             0.01    3.24
     1  PTBAS   ................      0.00    0.00             0.00   11.11             0.00    1.20
     8  FOCKY   ................      0.02   51.19             0.00   11.11             0.02   46.02
     8  FOCKTR  ................      0.00    1.19             0.00    0.00             0.00    0.99
     8  SDIIS   ................      0.00    4.76             0.00   22.22             0.00    5.72
     1  COREPS  ................      0.02    4.76             0.00    0.00             0.01    3.75
     1  POPAN   ................      0.00    0.00             0.00    0.00             0.00    1.16
     1  DEBYE   ................      0.00    1.19             0.00    0.00             0.00    0.49
     1  EXIT PROCEDURE .........      0.01    2.38             0.00   11.11             0.01    3.32


 Currently Open Files (EXIT00)
 ====================

 Unit    Access Format  Status   Type       Ident (file)
 -------------------------------------------------------
   3      SEQ    FORM   TRANSP  NORMAL      LOGFILE
                                          ( logfile )

 ***************************************************************************************************
 (LOGFILE)
 <Feb21-2023> <18:55:49>  DIRAC 2019  RunTime: Feb21-2023 18:55:49  Nodes: 1  Procs: 1
 <Feb21-2023> <18:55:49>  NORMAL TERMINATION
 <Feb21-2023> <18:55:49>  END
 <Feb21-2023> <18:55:49>  ADF 2019  RunTime: Feb21-2023 18:55:49  Nodes: 1  Procs: 1
 <Feb21-2023> <18:55:49>  Hydrogen (TZP)
 <Feb21-2023> <18:55:49>  RunType   : CREATE
 <Feb21-2023> <18:55:49>  Net Charge: 0 (Nuclei minus Electrons)
 <Feb21-2023> <18:55:49>  Symmetry  : ATOM
  Coordinates
    Atom         X           Y           Z   (Angstrom)
    1.H         0.000000    0.000000    0.000000
 <Feb21-2023> <18:55:49>  >>>> CORORT
 <Feb21-2023> <18:55:49>  >>>> CLSMAT
 <Feb21-2023> <18:55:49>  >>>> ORTHON
 <Feb21-2023> <18:55:49>  >>>> GENPT
 <Feb21-2023> <18:55:49>  Block Length=  64
 <Feb21-2023> <18:55:49>  >>>> PTBAS
 <Feb21-2023> <18:55:49>  >>>> CYCLE
 <Feb21-2023> <18:55:49>              |Error|         MaxErr       Wt(A-DIIS)
 <Feb21-2023> <18:55:49>      1      0.00000000      0.00000000
 <Feb21-2023> <18:55:49>      2      0.03153787      0.03011049
 <Feb21-2023> <18:55:49>      3      0.00861799      0.00834303    100.0
 <Feb21-2023> <18:55:49>      4      0.00173235      0.00171862      0.7
 <Feb21-2023> <18:55:49>      5      0.00004367      0.00003977      0.0
 <Feb21-2023> <18:55:49>      6      0.00000238      0.00000216      0.0
 <Feb21-2023> <18:55:49>      7      0.00000001      0.00000001      0.0
 <Feb21-2023> <18:55:49>  SCF converged
 <Feb21-2023> <18:55:49>      8      0.00000000      0.00000000      0.0
 <Feb21-2023> <18:55:49>  >>>> POPAN
 <Feb21-2023> <18:55:49>  >>>> DEBYE
 <Feb21-2023> <18:55:49>  NORMAL TERMINATION
 <Feb21-2023> <18:55:49>  END

 *******************************************************************************
 *                                                                             *
 *  -------------------------------------                                      *
 *   Amsterdam Density Functional  (ADF)         2019                          *
 *  -------------------------------------                                      *
 *                                               r74351 2019-04-25             *
 *                                                                             *
 *                                                                             *
 *                            =====================                            *
 *                            |                   |                            *
 *                            |     D I R A C     |                            *
 *                            |                   |                            *
 *                            =====================                            *
 *                                                                             *
 *                                                                             *
 *   Online information and documentation:  https://www.scm.com/support/       *
 *   E-mail:  support@scm.com   info@scm.com                                   *
 *                                                                             *
 *   Scientific publications using ADF results must be properly referenced     *
 *   See the User Manuals (or the web site) for recommended citations          *
 *   The terms and conditions of the End User License Agreement apply to       *
 *   the use of ADF, https://www.scm.com/license-terms/                        *
 *                                                                             *
 **********************  x86_64_linux_intel / intelmpi  ************************
 
 Licensed to: Dr. Carles Bo / Institute of Chemical Research of Catalonia ( (ICIQ) / Tarragona / Spain 2022-11-28 14:37:29
 SCM User ID: u7609
  
 DIRAC 2019  RunTime: Feb21-2023 18:55:49  Nodes: 1  Procs: 1

 Temporary files are created in /scratch/kid_0.2079990486

1
 PHOSPHORUS ATOM 1s CORE RELATIVISTIC, Point Nuc, A and c fro
 N J RN H ZN XION ANUC CLIGHT
 5000    7100.00000000197.36710137 15.00000000  0.00000000   30.973761  0.1370360E+03
  PH   PHI     EPS        DEL        DELRVR
  0.30  0.30     2500.00  0.00001000  0.00001000
 IDIRC  NC1  NDEBU NPRIN  IPUN IRCOR IWCOR
   1   300     0     0     0     0     1
   XALPHA      XLATTER      RNUC
  0.70000000  0.00000000  0.00000000 Point Charge
   XN   XL   XJ      XE          XZ      XDELL
  1.0  0.0  0.5    -600.000       2.000     0.00000
  2.0  0.0  0.5     -75.000       2.000     0.00000
  2.0  1.0  0.5     -70.000       2.000     0.00000
  2.0  1.0  1.5     -70.000       4.000     0.00000
  3.0  0.0  0.5     -25.000       2.000     0.00000
  3.0  1.0  0.5      -0.250       2.000     0.00000
  3.0  1.0  1.5      -0.250       1.000     0.00000
 ICORP=  0  NPCL=  0  DEMP=0.00  PEPS=0.000000
 R(1)=  0.1000000E-08 D=  0.1005080E+01 RNUC=  0.0000000E+00
 converged at cycle   47  DENSITY AVERAGING    0.3000
  MAXIMUM ERROR IN R.V(R) IS   0.93255186E-05
 Q,EY,EV,EZ,ESUM,ETOT,RHO  0.150000E+02 -0.290161E+02 -0.536820E+03 -0.814855E+03 -0.194417E+03 -0.340688E+03  0.340722E-13


 DIRAC CALCULATION
1                    PHOSPHORUS ATOM 1s CORE RELATIVISTIC, Point Nuc, A and c from libtc


 EXCHANGE COEFFICIENT=  0.7000000           TAIL CORRECTION=  0.           NUCLEAR RADIUS=  0.000E+00
0                       ORBITAL    N    L    J     ELECTRONS     EIGENVALUE                DELTA OF EIGENV.

                          1S1/2  1.0  0.0  0.5     2.000       -0.7640874E+02                 0.2597240E-06
                          2S1/2  2.0  0.0  0.5     2.000       -0.6353640E+01                 0.3482713E-07
                          2P1/2  2.0  1.0  0.5     2.000       -0.4588256E+01                 0.3010938E-07
                          2P3/2  2.0  1.0  1.5     4.000       -0.4554413E+01                 0.2993762E-07
                          3S1/2  3.0  0.0  0.5     2.000       -0.4844206E+00                 0.1693624E-07
                          3P1/2  3.0  1.0  0.5     2.000       -0.1770291E+00                 0.1234259E-07
                          3P3/2  3.0  1.0  1.5     1.000       -0.1750217E+00                 0.1224459E-07


                                        NUCLEAR CHARGE=   15.000000
                            INTEGRAL OF CHARGE DENSITY=   15.000000
                           SUM OF THE ORBITAL ENERGIES=   -194.4169
                                          TOTAL ENERGY=   -340.6884
                                        KINETIC ENERGY=    342.4034
                             NUCLEAR ATTRACTION ENERGY=   -814.8554
                             ELECTRON REPULSION ENERGY=    153.5256
                                       EXCHANGE ENERGY=    -21.7621

 *******************************************************************************

                             D I R A C   E X I T
 NORMAL TERMINATION



 =================
 Timing Statistics
 =================
  
 Total Used :                     CPU=        0.27      System=        0.01     Elapsed=        0.29

 Calls  Section                     ( Mean, Percentage )
 ---------------------------------------------------------------------------------------------------
     2  ><      ................      0.00    0.00             0.00    0.00             0.00    0.00
     1  EXIT PROCEDURE .........      0.27  100.00             0.01  100.00             0.29  100.00


 Currently Open Files (EXIT00)
 ====================

 Unit    Access Format  Status   Type       Ident (file)
 -------------------------------------------------------
   3      SEQ    FORM   TRANSP  NORMAL      LOGFILE
                                          ( logfile )
 
Create P   file=TZP-P.1s
XC
  GGA PBE
End
relativistic ZORA
Corepotentials t12.rel
End

 *******************************************************************************
 *                                                                             *
 *  -------------------------------------                                      *
 *   Amsterdam Density Functional  (ADF)         2019                          *
 *  -------------------------------------                                      *
 *                                               r74351 2019-04-25             *
 *                                                                             *
 *                                                                             *
 *                              =================                              *
 *                              |               |                              *
 *                              |     A D F     |                              *
 *                              |               |                              *
 *                              =================                              *
 *                                                                             *
 *                                                                             *
 *   Online information and documentation:  https://www.scm.com/support/       *
 *   E-mail:  support@scm.com   info@scm.com                                   *
 *                                                                             *
 *   Scientific publications using ADF results must be properly referenced     *
 *   See the User Manuals (or the web site) for recommended citations          *
 *   The terms and conditions of the End User License Agreement apply to       *
 *   the use of ADF, https://www.scm.com/license-terms/                        *
 *                                                                             *
 **********************  x86_64_linux_intel / intelmpi  ************************
 
 Licensed to: Dr. Carles Bo / Institute of Chemical Research of Catalonia ( (ICIQ) / Tarragona / Spain 2022-11-28 14:37:29
 SCM User ID: u7609
  
 ADF 2019  RunTime: Feb21-2023 18:55:50  Nodes: 1  Procs: 1

 Temporary files are created in /scratch/kid_0.1884091705

 Phosphorus (TZP, 1s frozen)



 ===========================
 A T T A C H E D   F I L E S
 ===========================
  
 CREATE - Data File:    TZP-P.1s
                        Phosphorus (TZP, 1s frozen)
 Core Potentials:
         file : t12.rel



 ===============================
 M O D E L   P A R A M E T E R S
 ===============================
  
 DENSITY FUNCTIONAL POTENTIAL (scf)
    LDA:                               PW92                                    == Not Default ==
    Gradient Corrections:              PBEc PBEx                               == Not Default ==

 SPIN  (restricted / unrestr.)
    Molecule:                          Restricted                               

 OTHER ASPECTS
    Relativistic Corrections:          scalar (ZORA,MAPA)                      == Not Default ==

    Nuclear Charge Density Model:      Point Charge Nuclei                      
    Core Treatment:                    Frozen Orbital(s)                        

    Hyperfine or Zeeman Interaction:   ---                                      



 =====================================
 S Y M M E T R Y ,   E L E C T R O N S
 =====================================
  
 Symmetry: ATOM

 Irreducible Representations, including subspecies
 -------------------------------------------------
 S
 P:x  P:y  P:z
 D:z2  D:x2-y2  D:xy  D:xz  D:yz
 F:z3  F:z  F:xyz  F:z2x  F:z2y  F:x  F:y


 Configuration of Valence Electrons
 ==================================

          Occupation Numbers
          -------------------------------------------------
 S        2*2
 P        6 3
 D        0
 F        0
          -------------------------------------------------

 Total:   13

 Net Charge: 0 (Nuclei minus Electrons)

 Preset values for MO occupations will be applied through SCF cycle no. 1000000
 Thereafter, the program will assign electrons to MOs that are spatially
 similar to the occupied MOs in a "reference" cycle ("KeepOrbitals").
 The reference cycle is always the PREVIOUS cycle: it will evolve with
 the SCF procedure.



 ================================
 (Slater-type)  F U N C T I O N S  ***  (Basis and Fit)  ***
 ================================
  

 Atom Type    1  (P)
 ==============

 Valence Basis Sets:  12
 -----------------------
   1 S   12.550000
   2 S    5.600000
   2 S    4.050000
   2 P    7.450000
   2 P    4.100000
   3 S    1.300000
   3 S    1.850000
   3 S    2.650000
   3 P    0.850000
   3 P    1.300000
   3 P    2.050000
   3 D    1.900000

 Frozen Core Shells
 ------------------
    S:  1


 BAS: List of all Elementary Cartesian Basis Functions
 =====================================================

 The numbering in the list below (to the right of the function characteristics) is referred
 to in print-outs of MO eigenvectors and Mulliken populations in the BAS representation
 (as contrasted to the SFO representation).

 Notes:
 1. The functions are characterized by a polynomial prefactor (powers of x,y,z and r) and
    an exponential decay factor alpha.
 2. Since the basis sets are specific for an atom TYPE, the individual functions occur on
    all atoms of that type.
 3. The word 'Core' in the left margin signals that it is a Core Function (CF) : not a
    degree of freedom in the valence set, but only used to ensure orthogonalization of
    the other valence basis functions on the frozen Core Orbitals.


 (power of) X  Y  Z  R     Alpha  on Atom
            ==========     =====     ==========

 P                                    1
                                  ---------------------------------------------------------------------------
    Core    0  0  0  0    12.550      1
            0  0  0  1     5.600      2
            0  0  0  1     4.050      3
            1  0  0  0     7.450      4
            0  1  0  0     7.450      5
            0  0  1  0     7.450      6
            1  0  0  0     4.100      7
            0  1  0  0     4.100      8
            0  0  1  0     4.100      9
            0  0  0  2     1.300     10
            0  0  0  2     1.850     11
            0  0  0  2     2.650     12
            1  0  0  1     0.850     13
            0  1  0  1     0.850     14
            0  0  1  1     0.850     15
            1  0  0  1     1.300     16
            0  1  0  1     1.300     17
            0  0  1  1     1.300     18
            1  0  0  1     2.050     19
            0  1  0  1     2.050     20
            0  0  1  1     2.050     21
            2  0  0  0     1.900     22
            1  1  0  0     1.900     23
            1  0  1  0     1.900     24
            0  2  0  0     1.900     25
            0  1  1  0     1.900     26
            0  0  2  0     1.900     27

 Total number of charge fitting functions (nprimf)       106
 Total number of Cartesian basis functions (naos)         27
 Total number of Cartesian core functions  (ncos)          1



 BAS: List of all Elementary Cartesian Basis Functions
 =====================================================

 The numbering in the list below (to the right of the function characteristics) is referred
 to in print-outs of MO eigenvectors and Mulliken populations in the BAS representation
 (as contrasted to the SFO representation).

 Notes:
 1. The functions are characterized by a polynomial prefactor (powers of x,y,z and r) and
    an exponential decay factor alpha.
 2. Since the basis sets are specific for an atom TYPE, the individual functions occur on
    all atoms of that type.
 3. The word 'Core' in the left margin signals that it is a Core Function (CF) : not a
    degree of freedom in the valence set, but only used to ensure orthogonalization of
    the other valence basis functions on the frozen Core Orbitals.


 (power of) X  Y  Z  R     Alpha  on Atom
            ==========     =====     ==========

 P                                    1
                                  ---------------------------------------------------------------------------
    Core    0  0  0  0    12.550      1
            0  0  0  1     5.600      2
            0  0  0  1     4.050      3
            1  0  0  0     7.450      4
            0  1  0  0     7.450      5
            0  0  1  0     7.450      6
            1  0  0  0     4.100      7
            0  1  0  0     4.100      8
            0  0  1  0     4.100      9
            0  0  0  2     1.300     10
            0  0  0  2     1.850     11
            0  0  0  2     2.650     12
            1  0  0  1     0.850     13
            0  1  0  1     0.850     14
            0  0  1  1     0.850     15
            1  0  0  1     1.300     16
            0  1  0  1     1.300     17
            0  0  1  1     1.300     18
            1  0  0  1     2.050     19
            0  1  0  1     2.050     20
            0  0  1  1     2.050     21
            2  0  0  0     1.900     22
            1  1  0  0     1.900     23
            1  0  1  0     1.900     24
            0  2  0  0     1.900     25
            0  1  1  0     1.900     26
            0  0  2  0     1.900     27
1
 ***************************************************************************************************



                                              ***********************
                                              *  T E C H N I C A L  *
                                              ***********************
  



 =============================================================
 P A R A L L E L I Z A T I O N  and  V E C T O R I Z A T I O N
 =============================================================
  
 Nr of parallel processes:                                1
 Maximum vector length in NumInt loops:                 128



 =====================
 S C F   U P D A T E S
 =====================
  
 Max. nr. of cycles:                               300
 Convergence criterion:                              0.0000000100
   secondary criterion:                              0.0000000100

 Mix parameter (when DIIS does not apply):           0.2000000000
 Special mix parameter for the first cycle:          1.0000000000
 Mixed ADIIS+SDIIS will be used                  
    Max number of expansion vectors:                10
    Pure ADIIS when Max([F,P]) is above              0.1000000000
    Pure SDIIS when Max([F,P]) is below              0.0010000000
 Automatic ElectronSmearing (in case of problematic SCF convergence) disabled



 =================
 P R E C I S I O N  ***  (General: NumInt, NeglectFunctionTails, ...)  ***
 =================
  

 NumInt:           Target precision:                12.0000000000
 -------           Initial precision:               10.0000000000
                   Min. precision (optimization):   10.0000000000

 Neglect Functions:          Basis functions:        0.1000000000E-13
 ------------------          Fit functions:          0.1000000000E-13



 ===========================
 L I N E A R   S C A L I N G
 ===========================
  

 Cut-off radii density fit:                        0.1000000000E-97
 Overlap cut-off criterion AO matrix elements:     0.1000000000E-97
 Cut-offs for Coulomb potential and fitted density:0.1000000000E-97
 Cut-off criterion for Coulomb multipole terms:    0.1000000000E-97
 Progressive Convergence parameter:                 0.000000000    
1
 ***************************************************************************************************



                                            ***************************
                                            *  C O M P U T A T I O N  *
                                            ***************************
  

 Number of elements of the density matrix on this node (used, total):       378       378



 ===========================================
 Numerical Integration : Fuzzy Cells (Becke)
 ===========================================
  
 Becke grid quality: VERYGOOD       
  
 Lebedev angular grid order:             min:  13 max:  41
 Nr. of radial points:                   min:  76 max:  76

 Total nr. of points:         76
 Nr. of blocks:                1
 Block length:                76
 Nr. of dummy points:          0


 Test of Precision of the Numerical Integration Grid
 ===================================================

 Integral of the Total Core Density:                   1.99999999908170
 Relative Error:                                      -4.592E-10



 ========================
 Density Fitting (zlmFit)
 ========================
  
 ZlmFit Fit Quality: VERYGOOD       
  
 Max L-expansion:                        min:   0 max:   0
 Nr. of radial interpolation points:     min: 190 max: 190



 =====
 S C F  ***  ScaSCF  ***
 =====
  

 CYCLE    1
 SCF Error: norm([F,P])=      0.000000000000, max([F,P])=      0.000000000000
 orbitals (Q,E):
 ---------------
 S :1...5            ( 2.00   -23.0992)  ( 2.00    -9.8031)  ( 0.00    -5.2886)  ( 0.00    -3.1440)
                     ( 0.00    -1.2993)
 P :1...5            ( 6.00   -22.3278)  ( 3.00    -9.2322)  ( 0.00    -4.8937)  ( 0.00    -3.0142)
                     ( 0.00    -1.9614)
 D :1...1            ( 0.00    -6.4318)

 CYCLE    2
  SDIIS (wt  0.000):  1.0000  0.0000
 A-DIIS (wt  1.000):  0.1145  0.8855
  DIIS coefficients:  0.1145  0.8855
 SCF Error: norm([F,P])=     18.574199763001, max([F,P])=      5.729460424591
 orbitals (Q,E):
 ---------------
 S :1...3            ( 2.00    -4.5689)  ( 2.00    -0.5693)  ( 0.00    -0.0589)
 P :1...3            ( 6.00    -2.5820)  ( 3.00    -0.3376)  ( 0.00    -0.0879)
 D :1...1            ( 0.00     0.3219)

 CYCLE    3
  SDIIS (wt  0.000):  0.2387  0.7613
 A-DIIS (wt  1.000):  0.0000  1.0000
  DIIS coefficients:  0.0000  1.0000
 SCF Error: norm([F,P])=      7.892246338364, max([F,P])=      2.592954182835
 orbitals (Q,E):
 ---------------
 S :1...3            ( 2.00    -8.2146)  ( 2.00    -0.9843)  ( 0.00    -0.0433)
 P :1...3            ( 6.00    -6.5635)  ( 3.00    -0.6019)  ( 0.00    -0.0049)
 D :1...1            ( 0.00    -0.0107)

 CYCLE    4
  SDIIS (wt  0.000): -0.0871  0.2952  0.7919
 A-DIIS (wt  1.000):  0.0000  0.1757  0.8243
  DIIS coefficients:  0.0000  0.1757  0.8243
 SCF Error: norm([F,P])=      4.387176641077, max([F,P])=      1.761626650861
 orbitals (Q,E):
 ---------------
 S :1...3            ( 2.00    -5.8126)  ( 2.00    -0.3504)  ( 0.00     0.1791)
 P :1...3            ( 6.00    -3.9508)  ( 3.00    -0.0835)  ( 0.00     0.1310)
 D :1...1            ( 0.00     0.5508)

 CYCLE    5
  SDIIS (wt  0.000): -0.0109 -0.0602  0.1941  0.8770
 A-DIIS (wt  1.000):  0.0000  0.0000  0.0000  1.0000
  DIIS coefficients:  0.0000  0.0000  0.0000  1.0000
 SCF Error: norm([F,P])=      1.324345584458, max([F,P])=      0.466956153840
 orbitals (Q,E):
 ---------------
 S :1...3            ( 2.00    -6.8907)  ( 2.00    -0.7073)  ( 0.00     0.0342)
 P :1...3            ( 6.00    -5.0922)  ( 3.00    -0.3650)  ( 0.00     0.0330)
 D :1...1            ( 0.00     0.1959)

 CYCLE    6
  SDIIS (wt  0.000):  0.0000 -0.0289 -0.0346  0.4584  0.6050
 A-DIIS (wt  1.000):  0.0000  0.0000  0.0000  0.3111  0.6889
  DIIS coefficients:  0.0000  0.0000  0.0000  0.3111  0.6889
 SCF Error: norm([F,P])=      0.894656609953, max([F,P])=      0.328552344502
 orbitals (Q,E):
 ---------------
 S :1...3            ( 2.00    -6.3109)  ( 2.00    -0.4896)  ( 0.00     0.1210)
 P :1...3            ( 6.00    -4.4823)  ( 3.00    -0.1842)  ( 0.00     0.0870)
 D :1...1            ( 0.00     0.4072)

 CYCLE    7
  SDIIS (wt  0.437):  0.0003 -0.0004 -0.0106 -0.0415  0.1385  0.9137
 A-DIIS (wt  0.563):  0.0000  0.0000  0.0000  0.0000  0.0000  1.0000
  DIIS coefficients:  0.0001 -0.0002 -0.0046 -0.0181  0.0605  0.9623
 SCF Error: norm([F,P])=      0.152753231532, max([F,P])=      0.056768903175
 orbitals (Q,E):
 ---------------
 S :1...3            ( 2.00    -6.4268)  ( 2.00    -0.5264)  ( 0.00     0.1084)
 P :1...3            ( 6.00    -4.6039)  ( 3.00    -0.2126)  ( 0.00     0.0772)
 D :1...1            ( 0.00     0.3702)

 CYCLE    8
  SDIIS (wt  0.777): -0.0000 -0.0007  0.0025  0.0136 -0.0400  0.1180  0.9067
 A-DIIS (wt  0.223):  0.0000  0.0000  0.0000  0.0000  0.0000  0.0410  0.9590
  DIIS coefficients: -0.0000 -0.0005  0.0019  0.0105 -0.0311  0.1008  0.9184
 SCF Error: norm([F,P])=      0.062117061218, max([F,P])=      0.023065151090
 orbitals (Q,E):
 ---------------
 S :1...3            ( 2.00    -6.3871)  ( 2.00    -0.5116)  ( 0.00     0.1144)
 P :1...3            ( 6.00    -4.5623)  ( 3.00    -0.2008)  ( 0.00     0.0809)
 D :1...1            ( 0.00     0.3849)

 CYCLE    9
  SDIIS (wt  0.976):  0.0000  0.0000 -0.0001 -0.0000 -0.0006  0.0067  0.1535  0.8406
 A-DIIS (wt  0.024):  0.0000  0.0000  0.0000  0.0000  0.0000  0.0000  0.0000  1.0000
  DIIS coefficients:  0.0000  0.0000 -0.0001 -0.0000 -0.0006  0.0065  0.1498  0.8445
 SCF Error: norm([F,P])=      0.008957667695, max([F,P])=      0.003406470825
 orbitals (Q,E):
 ---------------
 S :1...3            ( 2.00    -6.3923)  ( 2.00    -0.5136)  ( 0.00     0.1136)
 P :1...3            ( 6.00    -4.5677)  ( 3.00    -0.2024)  ( 0.00     0.0804)
 D :1...1            ( 0.00     0.3830)

 CYCLE   10
  SDIIS (wt  1.000): -0.0000  0.0000 -0.0000 -0.0000  0.0000  0.0002  0.0031  0.0372  0.9595
  DIIS coefficients: -0.0000  0.0000 -0.0000 -0.0000  0.0000  0.0002  0.0031  0.0372  0.9595
 SCF Error: norm([F,P])=      0.000163653333, max([F,P])=      0.000063717608
 orbitals (Q,E):
 ---------------
 S :1...3            ( 2.00    -6.3922)  ( 2.00    -0.5136)  ( 0.00     0.1136)
 P :1...3            ( 6.00    -4.5676)  ( 3.00    -0.2024)  ( 0.00     0.0804)
 D :1...1            ( 0.00     0.3830)

 CYCLE   11
  SDIIS (wt  1.000):  0.0000  0.0000 -0.0000 -0.0002 -0.0016 -0.0226  1.0244
  DIIS coefficients:  0.0000  0.0000 -0.0000 -0.0002 -0.0016 -0.0226  1.0244
 SCF Error: norm([F,P])=      0.000000175567, max([F,P])=      0.000000090743
 orbitals (Q,E):
 ---------------
 S :1...3            ( 2.00    -6.3922)  ( 2.00    -0.5136)  ( 0.00     0.1136)
 P :1...3            ( 6.00    -4.5676)  ( 3.00    -0.2024)  ( 0.00     0.0804)
 D :1...1            ( 0.00     0.3830)

 CYCLE   12
  SDIIS (wt  1.000): -0.0000 -0.0000 -0.0005 -0.0247  1.0252
  DIIS coefficients: -0.0000 -0.0000 -0.0005 -0.0247  1.0252
 SCF Error: norm([F,P])=      0.000000002285, max([F,P])=      0.000000001028
 orbitals (Q,E):
 ---------------
 S :1...3            ( 2.00    -6.3922)  ( 2.00    -0.5136)  ( 0.00     0.1136)
 P :1...3            ( 6.00    -4.5676)  ( 3.00    -0.2024)  ( 0.00     0.0804)
 D :1...1            ( 0.00     0.3830)

 SCF CONVERGED

 CYCLE   13
1
 ***************************************************************************************************



                                                *******************
                                                *  R E S U L T S  *
                                                *******************
  
 *** Using FIT density in Focky
  SDIIS (wt  1.000):  0.0000  0.0017  0.0326  0.9657
  DIIS coefficients:  0.0000  0.0017  0.0326  0.9657
 SCF Error: norm([F,P])=      0.000000000342, max([F,P])=      0.000000000172

 Scaled ZORA Orbital Energies, per Irrep and Spin:
 =================================================
                        Occup              E (au)              E (eV)       Diff (eV) with prev. cycle
                        -----      --------------------        ------       --------------------------
 S
               1        2.000     -0.63922369009056E+01      -173.942               8.75E-09
               2        2.000     -0.51357095789531E+00       -13.975               6.90E-09
               3        0.000      0.11360419341918E+00         3.091
               4        0.000      0.13218598554508E+01        35.970
               5        0.000      0.10430275582036E+02       283.822
 P
               1        6.000     -0.45676340295409E+01      -124.292               8.74E-09
               2        3.000     -0.20235270966723E+00        -5.506               5.88E-09
               3        0.000      0.80400995303665E-01         2.188
               4        0.000      0.71612464912880E+00        19.487
               5        0.000      0.95392466931961E+01       259.576
 D
               1        0.000      0.38299165710671E+00        10.422


 Partially Occupied:
               2 P                -0.20235270966723E+00
  
 HOMO :        2 S                -0.51357095789531E+00
 LUMO :        3 P                 0.80400995303665E-01
  


 Orbital Energies, all Irreps
 ========================================

 Irrep        no.  (spin)   Occup              E (au)                E (eV)
 ---------------------------------------------------------------------------
 S             1             2.00       -0.63922369009056E+01      -173.9416
 P             1             6.00       -0.45676340295409E+01      -124.2916
 S             2             2.00       -0.51357095789531E+00       -13.9750
 P             2             3.00       -0.20235270966723E+00        -5.5063
 P             3             0.00        0.80400995303665E-01         2.1878
 S             3             0.00        0.11360419341918E+00         3.0913
 D             1             0.00        0.38299165710671E+00        10.4217
 P             4             0.00        0.71612464912880E+00        19.4867
 S             4             0.00        0.13218598554508E+01        35.9696
 P             5             0.00        0.95392466931961E+01       259.5761
 S             5             0.00        0.10430275582036E+02       283.8222


 Scaled ZORA Orbital Energies of the Core Orbitals:
 ==================================================

 (Note that the atoms are grouped by atomtype, see the labels, and may hence NOT be in input order)

 AtomType  Orbital  Atom                   E (au)                        E (eV)
 --------  -------  ----           --------------------        ----------------
 P           1S        1          -0.76588588395026E+02               -2084.082



 =======================================
 M U L L I K E N   P O P U L A T I O N S
 =======================================
  
 The survey below gives for each atom:
 a) the total charge (Z minus electrons)
 b) the net spin polarization (nr of electrons spin-A minus spin-B)
 c) for each spin the atomic electron valence density (integrated) per L-value.

 Atom              Charge    Spin density          S         P         D         F
 ----              ------    ------------       ------    ------    ------    ------
 1 P              -0.0000                       4.0000    9.0000    0.0000    0.0000

 Populations of individual BAS functions
 ----------------------------------------
 1 P           -0.0481  1.4990  0.5077  0.7973  0.7973  0.7973  1.2052  1.2052  1.2052  0.3372
                1.0986  0.6057  0.1369  0.1369  0.1369  0.4144  0.4144  0.4144  0.4462  0.4462
                0.4462  0.0000  0.0000  0.0000  0.0000  0.0000  0.0000

 Gross Charges per Atom (Z minus electrons)
 ==========================================
            -0.0000
 Net Total: -0.00000000



 =======================================================================
 Electrostatic potential at the Nuclei due to electrons and other nuclei
 =======================================================================
  
         Atom                  Potential
         ----                  ---------
     1)   P                  54.30955117
 
 
 ========================
 No memory problems found
 ========================
 
 Maximum number of active allocate calls:         389
 
 *******************************************************************************

                             A D F   E X I T
 NORMAL TERMINATION



 =================
 Timing Statistics
 =================
  
 Total Used :                     CPU=        0.61      System=        0.01     Elapsed=        1.11

 Calls  Section                     ( Mean, Percentage )
 ---------------------------------------------------------------------------------------------------
     3  ><      ................      0.00    0.65             0.00    0.00             0.00    0.39
     1  INIT    ................      0.07   11.76             0.00    0.00             0.08    6.83
     1  GEOMET  ................      0.02    3.27             0.00    0.00             0.03    2.30
     1  INPUTA  ................      0.00    0.65             0.00    0.00             0.00    0.33
     1  MAINSY  ................      0.01    1.96             0.00    0.00             0.02    1.37
     1  SYMFIT  ................      0.00    0.00             0.00    0.00             0.00    0.15
     1  CORORT  ................      0.00    0.65             0.00    0.00             0.00    0.15
     1  SYMORB  ................      0.00    0.00             0.00    0.00             0.00    0.08
     1  CLSMAT  ................      0.00    0.65             0.00    0.00             0.01    0.52
     1  ORTHON  ................      0.01    1.31             0.00    0.00             0.01    0.52
     1  GENPT   ................      0.02    3.27             0.00    0.00             0.02    1.74
     1  PTBAS   ................      0.00    0.65             0.00    0.00             0.01    0.48
    13  FOCKY   ................      0.03   61.44             0.00   66.67             0.03   36.15
    13  FOCKTR  ................      0.00    1.31             0.00    0.00             0.00    0.70
    13  SDIIS   ................      0.00    5.23             0.00   33.33             0.00    3.50
     1  COREPS  ................      0.02    3.92             0.00    0.00             0.02    2.22
     1  POPAN   ................      0.00    0.65             0.00    0.00             0.01    0.48
     1  DEBYE   ................      0.00    0.00             0.00    0.00             0.00    0.18
     1  EXIT PROCEDURE .........      0.02    2.61             0.00    0.00             0.46   41.91


 Currently Open Files (EXIT00)
 ====================

 Unit    Access Format  Status   Type       Ident (file)
 -------------------------------------------------------
   3      SEQ    FORM   TRANSP  NORMAL      LOGFILE
                                          ( logfile )

 ***************************************************************************************************
 (LOGFILE)
 <Feb21-2023> <18:55:49>  DIRAC 2019  RunTime: Feb21-2023 18:55:49  Nodes: 1  Procs: 1
 <Feb21-2023> <18:55:49>  NORMAL TERMINATION
 <Feb21-2023> <18:55:49>  END
 <Feb21-2023> <18:55:49>  ADF 2019  RunTime: Feb21-2023 18:55:49  Nodes: 1  Procs: 1
 <Feb21-2023> <18:55:49>  Hydrogen (TZP)
 <Feb21-2023> <18:55:49>  RunType   : CREATE
 <Feb21-2023> <18:55:49>  Net Charge: 0 (Nuclei minus Electrons)
 <Feb21-2023> <18:55:49>  Symmetry  : ATOM
  Coordinates
    Atom         X           Y           Z   (Angstrom)
    1.H         0.000000    0.000000    0.000000
 <Feb21-2023> <18:55:49>  >>>> CORORT
 <Feb21-2023> <18:55:49>  >>>> CLSMAT
 <Feb21-2023> <18:55:49>  >>>> ORTHON
 <Feb21-2023> <18:55:49>  >>>> GENPT
 <Feb21-2023> <18:55:49>  Block Length=  64
 <Feb21-2023> <18:55:49>  >>>> PTBAS
 <Feb21-2023> <18:55:49>  >>>> CYCLE
 <Feb21-2023> <18:55:49>              |Error|         MaxErr       Wt(A-DIIS)
 <Feb21-2023> <18:55:49>      1      0.00000000      0.00000000
 <Feb21-2023> <18:55:49>      2      0.03153787      0.03011049
 <Feb21-2023> <18:55:49>      3      0.00861799      0.00834303    100.0
 <Feb21-2023> <18:55:49>      4      0.00173235      0.00171862      0.7
 <Feb21-2023> <18:55:49>      5      0.00004367      0.00003977      0.0
 <Feb21-2023> <18:55:49>      6      0.00000238      0.00000216      0.0
 <Feb21-2023> <18:55:49>      7      0.00000001      0.00000001      0.0
 <Feb21-2023> <18:55:49>  SCF converged
 <Feb21-2023> <18:55:49>      8      0.00000000      0.00000000      0.0
 <Feb21-2023> <18:55:49>  >>>> POPAN
 <Feb21-2023> <18:55:49>  >>>> DEBYE
 <Feb21-2023> <18:55:49>  NORMAL TERMINATION
 <Feb21-2023> <18:55:49>  END
 <Feb21-2023> <18:55:49>  DIRAC 2019  RunTime: Feb21-2023 18:55:49  Nodes: 1  Procs: 1
 <Feb21-2023> <18:55:49>  NORMAL TERMINATION
 <Feb21-2023> <18:55:49>  END
 <Feb21-2023> <18:55:50>  ADF 2019  RunTime: Feb21-2023 18:55:50  Nodes: 1  Procs: 1
 <Feb21-2023> <18:55:50>  Phosphorus (TZP, 1s frozen)
 <Feb21-2023> <18:55:50>  RunType   : CREATE
 <Feb21-2023> <18:55:50>  Net Charge: 0 (Nuclei minus Electrons)
 <Feb21-2023> <18:55:50>  Symmetry  : ATOM
  Coordinates
    Atom         X           Y           Z   (Angstrom)
    1.P         0.000000    0.000000    0.000000
 <Feb21-2023> <18:55:50>  >>>> CORORT
 <Feb21-2023> <18:55:50>  >>>> CLSMAT
 <Feb21-2023> <18:55:50>  >>>> ORTHON
 <Feb21-2023> <18:55:50>  >>>> GENPT
 <Feb21-2023> <18:55:50>  Block Length=  76
 <Feb21-2023> <18:55:50>  >>>> PTBAS
 <Feb21-2023> <18:55:50>  >>>> CYCLE
 <Feb21-2023> <18:55:50>              |Error|         MaxErr       Wt(A-DIIS)
 <Feb21-2023> <18:55:50>      1      0.00000000      0.00000000
 <Feb21-2023> <18:55:50>      2     18.57419976      5.72946042    100.0
 <Feb21-2023> <18:55:50>      3      7.89224634      2.59295418    100.0
 <Feb21-2023> <18:55:50>      4      4.38717664      1.76162665    100.0
 <Feb21-2023> <18:55:50>      5      1.32434558      0.46695615    100.0
 <Feb21-2023> <18:55:50>      6      0.89465661      0.32855234    100.0
 <Feb21-2023> <18:55:50>      7      0.15275323      0.05676890     56.3
 <Feb21-2023> <18:55:50>      8      0.06211706      0.02306515     22.3
 <Feb21-2023> <18:55:50>      9      0.00895767      0.00340647      2.4
 <Feb21-2023> <18:55:50>     10      0.00016365      0.00006372      0.0
 <Feb21-2023> <18:55:50>     11      0.00000018      0.00000009      0.0
 <Feb21-2023> <18:55:50>     12      0.00000000      0.00000000      0.0
 <Feb21-2023> <18:55:50>  SCF converged
 <Feb21-2023> <18:55:50>     13      0.00000000      0.00000000      0.0
 <Feb21-2023> <18:55:50>  >>>> POPAN
 <Feb21-2023> <18:55:50>  >>>> DEBYE
 <Feb21-2023> <18:55:50>  NORMAL TERMINATION
 <Feb21-2023> <18:55:51>  END

 *******************************************************************************
 *                                                                             *
 *  -------------------------------------                                      *
 *   Amsterdam Density Functional  (ADF)         2019                          *
 *  -------------------------------------                                      *
 *                                               r74351 2019-04-25             *
 *                                                                             *
 *                                                                             *
 *                            =====================                            *
 *                            |                   |                            *
 *                            |     D I R A C     |                            *
 *                            |                   |                            *
 *                            =====================                            *
 *                                                                             *
 *                                                                             *
 *   Online information and documentation:  https://www.scm.com/support/       *
 *   E-mail:  support@scm.com   info@scm.com                                   *
 *                                                                             *
 *   Scientific publications using ADF results must be properly referenced     *
 *   See the User Manuals (or the web site) for recommended citations          *
 *   The terms and conditions of the End User License Agreement apply to       *
 *   the use of ADF, https://www.scm.com/license-terms/                        *
 *                                                                             *
 **********************  x86_64_linux_intel / intelmpi  ************************
 
 Licensed to: Dr. Carles Bo / Institute of Chemical Research of Catalonia ( (ICIQ) / Tarragona / Spain 2022-11-28 14:37:29
 SCM User ID: u7609
  
 DIRAC 2019  RunTime: Feb21-2023 18:55:51  Nodes: 1  Procs: 1

 Temporary files are created in /scratch/kid_0.763028467

1
 MOLYBDENUM ATOM 3d CORE RELATIVISTIC, Point Nuc, A and c fro
 N J RN H ZN XION ANUC CLIGHT
 5000   15100.00000000197.36710137 42.00000000  0.00000000   97.905406  0.1370360E+03
  PH   PHI     EPS        DEL        DELRVR
  0.30  0.30     2500.00  0.00001000  0.00001000
 IDIRC  NC1  NDEBU NPRIN  IPUN IRCOR IWCOR
   1   300     0     0     0     0     9
   XALPHA      XLATTER      RNUC
  0.70000000  0.00000000  0.00000000 Point Charge
   XN   XL   XJ      XE          XZ      XDELL
  1.0  0.0  0.5   -1500.000       2.000     0.00000
  2.0  0.0  0.5    -325.000       2.000     0.00000
  2.0  1.0  0.5    -325.000       2.000     0.00000
  2.0  1.0  1.5    -325.000       4.000     0.00000
  3.0  0.0  0.5     -70.000       2.000     0.00000
  3.0  1.0  0.5     -70.000       2.000     0.00000
  3.0  1.0  1.5     -70.000       4.000     0.00000
  3.0  2.0  1.5     -60.000       4.000     0.00000
  3.0  2.0  2.5     -60.000       6.000     0.00000
  4.0  0.0  0.5     -10.000       2.000     0.00000
  4.0  1.0  0.5     -10.000       2.000     0.00000
  4.0  1.0  1.5     -10.000       4.000     0.00000
  4.0  2.0  1.5      -1.000       4.000     0.00000
  4.0  2.0  2.5      -1.000       1.000     0.00000
  5.0  0.0  0.5      -0.500       1.000     0.00000
 ICORP=  0  NPCL=  0  DEMP=0.00  PEPS=0.000000
 R(1)=  0.1000000E-08 D=  0.1005080E+01 RNUC=  0.0000000E+00
 converged at cycle   41  DENSITY AVERAGING    0.2400
  MAXIMUM ERROR IN R.V(R) IS   0.93203452E-05
 Q,EY,EV,EZ,ESUM,ETOT,RHO  0.420000E+02 -0.161898E+03 -0.662509E+04 -0.978397E+04 -0.242700E+04 -0.404691E+04  0.342495E-11


 DIRAC CALCULATION
1                    MOLYBDENUM ATOM 3d CORE RELATIVISTIC, Point Nuc, A and c from libtc


 EXCHANGE COEFFICIENT=  0.7000000           TAIL CORRECTION=  0.           NUCLEAR RADIUS=  0.000E+00
0                       ORBITAL    N    L    J     ELECTRONS     EIGENVALUE                DELTA OF EIGENV.

                          1S1/2  1.0  0.0  0.5     2.000       -0.7276812E+03                 0.2822496E-04
                          2S1/2  2.0  0.0  0.5     2.000       -0.1028194E+03                 0.1725465E-04
                          2P1/2  2.0  1.0  0.5     2.000       -0.9468016E+02                 0.1864325E-04
                          2P3/2  2.0  1.0  1.5     4.000       -0.9076266E+02                 0.1832345E-04
                          3S1/2  3.0  0.0  0.5     2.000       -0.1747094E+02                 0.5979346E-05
                          3P1/2  3.0  1.0  0.5     2.000       -0.1436574E+02                 0.6275079E-05
                          3P3/2  3.0  1.0  1.5     4.000       -0.1371946E+02                 0.5984426E-05
                          3D3/2  3.0  2.0  1.5     4.000       -0.8203697E+01                 0.6709395E-05
                          3D5/2  3.0  2.0  2.5     6.000       -0.8081013E+01                 0.6610438E-05
                          4S1/2  4.0  0.0  0.5     2.000       -0.2338238E+01                 0.2446887E-06
                          4P1/2  4.0  1.0  0.5     2.000       -0.1452045E+01                 0.2971982E-06
                          4P3/2  4.0  1.0  1.5     4.000       -0.1358936E+01                 0.3186552E-06
                          4D3/2  4.0  2.0  1.5     4.000       -0.1184046E+00                 0.3378248E-06
                          4D5/2  4.0  2.0  2.5     1.000       -0.1108976E+00                 0.3342679E-06
                          5S1/2  5.0  0.0  0.5     1.000       -0.1320069E+00                 0.9757102E-07


                                        NUCLEAR CHARGE=   42.000000
                            INTEGRAL OF CHARGE DENSITY=   42.000000
                           SUM OF THE ORBITAL ENERGIES=  -2426.9970
                                          TOTAL ENERGY=  -4046.9128
                                        KINETIC ENERGY=   4198.0886
                             NUCLEAR ATTRACTION ENERGY=  -9783.9685
                             ELECTRON REPULSION ENERGY=   1660.3903
                                       EXCHANGE ENERGY=   -121.4232

 *******************************************************************************

                             D I R A C   E X I T
 NORMAL TERMINATION



 =================
 Timing Statistics
 =================
  
 Total Used :                     CPU=        0.46      System=        0.00     Elapsed=        0.47

 Calls  Section                     ( Mean, Percentage )
 ---------------------------------------------------------------------------------------------------
     2  ><      ................      0.00    0.00             0.00    0.00             0.00    0.00
     1  EXIT PROCEDURE .........      0.46  100.00             0.00    0.00             0.47  100.00


 Currently Open Files (EXIT00)
 ====================

 Unit    Access Format  Status   Type       Ident (file)
 -------------------------------------------------------
   3      SEQ    FORM   TRANSP  NORMAL      LOGFILE
                                          ( logfile )
 
Create Mo   file=TZP-Mo.3d
XC
  GGA PBE
End
relativistic ZORA
Corepotentials t12.rel
End

 *******************************************************************************
 *                                                                             *
 *  -------------------------------------                                      *
 *   Amsterdam Density Functional  (ADF)         2019                          *
 *  -------------------------------------                                      *
 *                                               r74351 2019-04-25             *
 *                                                                             *
 *                                                                             *
 *                              =================                              *
 *                              |               |                              *
 *                              |     A D F     |                              *
 *                              |               |                              *
 *                              =================                              *
 *                                                                             *
 *                                                                             *
 *   Online information and documentation:  https://www.scm.com/support/       *
 *   E-mail:  support@scm.com   info@scm.com                                   *
 *                                                                             *
 *   Scientific publications using ADF results must be properly referenced     *
 *   See the User Manuals (or the web site) for recommended citations          *
 *   The terms and conditions of the End User License Agreement apply to       *
 *   the use of ADF, https://www.scm.com/license-terms/                        *
 *                                                                             *
 **********************  x86_64_linux_intel / intelmpi  ************************
 
 Licensed to: Dr. Carles Bo / Institute of Chemical Research of Catalonia ( (ICIQ) / Tarragona / Spain 2022-11-28 14:37:29
 SCM User ID: u7609
  
 ADF 2019  RunTime: Feb21-2023 18:55:51  Nodes: 1  Procs: 1

 Temporary files are created in /scratch/kid_0.1166886622

 Molybdenum (TZP, 3d frozen)



 ===========================
 A T T A C H E D   F I L E S
 ===========================
  
 CREATE - Data File:    TZP-Mo.3d
                        Molybdenum (TZP, 3d frozen)
 Core Potentials:
         file : t12.rel



 ===============================
 M O D E L   P A R A M E T E R S
 ===============================
  
 DENSITY FUNCTIONAL POTENTIAL (scf)
    LDA:                               PW92                                    == Not Default ==
    Gradient Corrections:              PBEc PBEx                               == Not Default ==

 SPIN  (restricted / unrestr.)
    Molecule:                          Restricted                               

 OTHER ASPECTS
    Relativistic Corrections:          scalar (ZORA,MAPA)                      == Not Default ==

    Nuclear Charge Density Model:      Point Charge Nuclei                      
    Core Treatment:                    Frozen Orbital(s)                        

    Hyperfine or Zeeman Interaction:   ---                                      



 =====================================
 S Y M M E T R Y ,   E L E C T R O N S
 =====================================
  
 Symmetry: ATOM

 Irreducible Representations, including subspecies
 -------------------------------------------------
 S
 P:x  P:y  P:z
 D:z2  D:x2-y2  D:xy  D:xz  D:yz
 F:z3  F:z  F:xyz  F:z2x  F:z2y  F:x  F:y


 Configuration of Valence Electrons
 ==================================

          Occupation Numbers
          -------------------------------------------------
 S        2 1
 P        6
 D        5
 F        0
          -------------------------------------------------

 Total:   14

 Net Charge: 0 (Nuclei minus Electrons)

 Preset values for MO occupations will be applied through SCF cycle no. 1000000
 Thereafter, the program will assign electrons to MOs that are spatially
 similar to the occupied MOs in a "reference" cycle ("KeepOrbitals").
 The reference cycle is always the PREVIOUS cycle: it will evolve with
 the SCF procedure.



 ================================
 (Slater-type)  F U N C T I O N S  ***  (Basis and Fit)  ***
 ================================
  

 Atom Type    1  (Mo)
 ==============

 Valence Basis Sets:  18
 -----------------------
   1 S   30.500000
   2 S   17.750000
   3 S    8.350000
   2 P   18.600000
   3 P    8.700000
   3 D   10.050000
   4 S    5.100000
   4 S    3.300000
   5 S    2.150000
   5 S    1.350000
   5 S    0.870000
   4 P    4.950000
   4 P    3.300000
   4 P    2.300000
   4 D    3.500000
   4 D    1.850000
   4 D    0.970000
   5 P    1.350000

 Frozen Core Shells
 ------------------
    S:  3
    P:  2
    D:  1


 BAS: List of all Elementary Cartesian Basis Functions
 =====================================================

 The numbering in the list below (to the right of the function characteristics) is referred
 to in print-outs of MO eigenvectors and Mulliken populations in the BAS representation
 (as contrasted to the SFO representation).

 Notes:
 1. The functions are characterized by a polynomial prefactor (powers of x,y,z and r) and
    an exponential decay factor alpha.
 2. Since the basis sets are specific for an atom TYPE, the individual functions occur on
    all atoms of that type.
 3. The word 'Core' in the left margin signals that it is a Core Function (CF) : not a
    degree of freedom in the valence set, but only used to ensure orthogonalization of
    the other valence basis functions on the frozen Core Orbitals.


 (power of) X  Y  Z  R     Alpha  on Atom
            ==========     =====     ==========

 Mo                                   1
                                  ---------------------------------------------------------------------------
    Core    0  0  0  0    30.500      1
    Core    0  0  0  1    17.750      2
    Core    0  0  0  2     8.350      3
    Core    1  0  0  0    18.600      4
    Core    0  1  0  0    18.600      5
    Core    0  0  1  0    18.600      6
    Core    1  0  0  1     8.700      7
    Core    0  1  0  1     8.700      8
    Core    0  0  1  1     8.700      9
    Core    2  0  0  0    10.050     10
    Core    1  1  0  0    10.050     11
    Core    1  0  1  0    10.050     12
    Core    0  2  0  0    10.050     13
    Core    0  1  1  0    10.050     14
    Core    0  0  2  0    10.050     15
            0  0  0  3     5.100     16
            0  0  0  3     3.300     17
            0  0  0  4     2.150     18
            0  0  0  4     1.350     19
            0  0  0  4     0.870     20
            1  0  0  2     4.950     21
            0  1  0  2     4.950     22
            0  0  1  2     4.950     23
            1  0  0  2     3.300     24
            0  1  0  2     3.300     25
            0  0  1  2     3.300     26
            1  0  0  2     2.300     27
            0  1  0  2     2.300     28
            0  0  1  2     2.300     29
            2  0  0  1     3.500     30
            1  1  0  1     3.500     31
            1  0  1  1     3.500     32
            0  2  0  1     3.500     33
            0  1  1  1     3.500     34
            0  0  2  1     3.500     35
            2  0  0  1     1.850     36
            1  1  0  1     1.850     37
            1  0  1  1     1.850     38
            0  2  0  1     1.850     39
            0  1  1  1     1.850     40
            0  0  2  1     1.850     41
            2  0  0  1     0.970     42
            1  1  0  1     0.970     43
            1  0  1  1     0.970     44
            0  2  0  1     0.970     45
            0  1  1  1     0.970     46
            0  0  2  1     0.970     47
            1  0  0  3     1.350     48
            0  1  0  3     1.350     49
            0  0  1  3     1.350     50

 Total number of charge fitting functions (nprimf)       230
 Total number of Cartesian basis functions (naos)         50
 Total number of Cartesian core functions  (ncos)         15



 BAS: List of all Elementary Cartesian Basis Functions
 =====================================================

 The numbering in the list below (to the right of the function characteristics) is referred
 to in print-outs of MO eigenvectors and Mulliken populations in the BAS representation
 (as contrasted to the SFO representation).

 Notes:
 1. The functions are characterized by a polynomial prefactor (powers of x,y,z and r) and
    an exponential decay factor alpha.
 2. Since the basis sets are specific for an atom TYPE, the individual functions occur on
    all atoms of that type.
 3. The word 'Core' in the left margin signals that it is a Core Function (CF) : not a
    degree of freedom in the valence set, but only used to ensure orthogonalization of
    the other valence basis functions on the frozen Core Orbitals.


 (power of) X  Y  Z  R     Alpha  on Atom
            ==========     =====     ==========

 Mo                                   1
                                  ---------------------------------------------------------------------------
    Core    0  0  0  0    30.500      1
    Core    0  0  0  1    17.750      2
    Core    0  0  0  2     8.350      3
    Core    1  0  0  0    18.600      4
    Core    0  1  0  0    18.600      5
    Core    0  0  1  0    18.600      6
    Core    1  0  0  1     8.700      7
    Core    0  1  0  1     8.700      8
    Core    0  0  1  1     8.700      9
    Core    2  0  0  0    10.050     10
    Core    1  1  0  0    10.050     11
    Core    1  0  1  0    10.050     12
    Core    0  2  0  0    10.050     13
    Core    0  1  1  0    10.050     14
    Core    0  0  2  0    10.050     15
            0  0  0  3     5.100     16
            0  0  0  3     3.300     17
            0  0  0  4     2.150     18
            0  0  0  4     1.350     19
            0  0  0  4     0.870     20
            1  0  0  2     4.950     21
            0  1  0  2     4.950     22
            0  0  1  2     4.950     23
            1  0  0  2     3.300     24
            0  1  0  2     3.300     25
            0  0  1  2     3.300     26
            1  0  0  2     2.300     27
            0  1  0  2     2.300     28
            0  0  1  2     2.300     29
            2  0  0  1     3.500     30
            1  1  0  1     3.500     31
            1  0  1  1     3.500     32
            0  2  0  1     3.500     33
[...]
 <Feb21-2023> <20:52:08>  >>>> GENPT
 <Feb21-2023> <20:52:08>  Block Length= 128
 <Feb21-2023> <20:52:08>  >>>> PTBAS
 <Feb21-2023> <20:52:11>  combining surface points...
 <Feb21-2023> <20:52:11>  combining surface points...
 <Feb21-2023> <20:52:11>  combining surface points...
 <Feb21-2023> <20:52:11>  >>>> CYCLE
 <Feb21-2023> <20:52:15>              |Error|         MaxErr       Wt(A-DIIS)
 <Feb21-2023> <20:52:15>      1      0.05597964      0.00645383
 <Feb21-2023> <20:52:18>      2      0.22086367      0.03613502    100.0
 <Feb21-2023> <20:52:20>      3      0.05862989      0.00726110    100.0
 <Feb21-2023> <20:52:23>      4      0.09460512      0.01243587    100.0
 <Feb21-2023> <20:52:26>      5      0.21529501      0.02818389    100.0
 <Feb21-2023> <20:52:29>      6      0.08974573      0.00934735    100.0
 <Feb21-2023> <20:52:32>      7      0.10229075      0.01467001    100.0
 <Feb21-2023> <20:52:35>      8      0.02443357      0.00432900      3.4
 <Feb21-2023> <20:52:38>      9      0.00878737      0.00138411      0.4
 <Feb21-2023> <20:52:40>     10      0.00248709      0.00037200      0.0
 <Feb21-2023> <20:52:43>     11      0.00179100      0.00038062      0.0
 <Feb21-2023> <20:52:46>     12      0.00048039      0.00007135      0.0
 <Feb21-2023> <20:52:49>     13      0.00046459      0.00005534      0.0
 <Feb21-2023> <20:52:52>     14      0.00014924      0.00001947      0.0
 <Feb21-2023> <20:52:54>     15      0.00010337      0.00001445      0.0
 <Feb21-2023> <20:52:57>     16      0.00003140      0.00000587      0.0
 <Feb21-2023> <20:53:00>     17      0.00003273      0.00000408      0.0
 <Feb21-2023> <20:53:03>     18      0.00003371      0.00000483      0.0
 <Feb21-2023> <20:53:05>     19      0.00000634      0.00000089      0.0
 <Feb21-2023> <20:53:06>  SCF converged
 <Feb21-2023> <20:53:08>     20      0.00000489      0.00000072      0.0
 <Feb21-2023> <20:53:09>  >>>> TOTEN
 <Feb21-2023> <20:53:13>  >>>> POPAN
 <Feb21-2023> <20:53:13>  >>>> DEBYE
 <Feb21-2023> <20:53:13>  >>>> ENGRAD
 <Feb21-2023> <20:53:24>  current energy                               -7.80127079 Hartree
 <Feb21-2023> <20:53:24>  energy change                      -0.00003300     0.00100000    T
 <Feb21-2023> <20:53:24>  constrained gradient max            0.00102826     0.00100000    F
 <Feb21-2023> <20:53:24>  constrained gradient rms            0.00037515     0.00066667    T
 <Feb21-2023> <20:53:24>  gradient max                        0.00102826
 <Feb21-2023> <20:53:24>  gradient rms                        0.00037515
 <Feb21-2023> <20:53:24>  cart. step max                      0.00878437     0.01000000    T
 <Feb21-2023> <20:53:24>  cart. step rms                      0.00267359     0.00666667    T
  Coordinates in Geometry Cycle 91
    Atom         X           Y           Z   (Angstrom)
    1.O        -2.928641    2.632017    1.456300
    2.Mo        0.738320   -2.483097   -0.743187
    3.O         2.790869    1.414254   -0.340916
    4.Mo        1.046362    2.301480   -0.749298
    5.O         1.185380   -3.963499    0.033926
    6.O        -1.456131    0.110709    1.201983
    7.O         1.456471    3.968826   -0.598449
    8.Mo       -2.765043   -1.472043    0.090930
    9.O        -3.659175    3.022407   -1.170198
   10.Mo       -2.681448    2.018889   -0.146847
   11.O         3.115757   -0.685670    1.757826
   12.Mo        3.307859   -0.357800    0.036569
   13.O        -1.062240   -2.336784   -0.038288
   14.O         0.425998   -2.825874   -2.409196
   15.P         0.072948    0.193225    1.284167
   16.O        -0.935225    2.319775   -0.770817
   17.O        -3.441323    0.283766   -0.426152
   18.O         0.775401   -0.456775    0.009909
   19.O        -3.512718   -1.983501    1.563611
   20.O        -3.595006   -2.353995   -1.153037
   21.O         2.619536   -1.790497   -0.981535
   22.O         1.139190    1.914751   -2.439309
   23.O         0.555656   -0.592583    2.587946
   24.O         5.011616   -0.380667   -0.275578
   25.O         0.621148    1.644494    1.280195
   26.H         1.558603   -0.682617    2.512930
 <Feb21-2023> <20:53:24>  >>>> CORORT
 <Feb21-2023> <20:53:24>  >>>> CLSMAT
 <Feb21-2023> <20:53:24>  >>>> ORTHON
 <Feb21-2023> <20:53:24>  >>>> GENPT
 <Feb21-2023> <20:53:24>  Block Length= 128
 <Feb21-2023> <20:53:25>  >>>> PTBAS
 <Feb21-2023> <20:53:27>  combining surface points...
 <Feb21-2023> <20:53:27>  combining surface points...
 <Feb21-2023> <20:53:27>  combining surface points...
 <Feb21-2023> <20:53:27>  >>>> CYCLE
 <Feb21-2023> <20:53:31>              |Error|         MaxErr       Wt(A-DIIS)
 <Feb21-2023> <20:53:31>      1      0.05859935      0.00647803
 <Feb21-2023> <20:53:34>      2      0.22287374      0.03645593    100.0
 <Feb21-2023> <20:53:37>      3      0.05899604      0.00729528    100.0
 <Feb21-2023> <20:53:40>      4      0.09186966      0.01204603    100.0
 <Feb21-2023> <20:53:42>      5      0.22666386      0.02945336    100.0
 <Feb21-2023> <20:53:45>      6      0.09030979      0.00906708    100.0
 <Feb21-2023> <20:53:48>      7      0.10131183      0.01404249    100.0
 <Feb21-2023> <20:53:51>      8      0.02357815      0.00419512      3.2
 <Feb21-2023> <20:53:54>      9      0.00858552      0.00132648      0.3
 <Feb21-2023> <20:53:57>     10      0.00249341      0.00037277      0.0
 <Feb21-2023> <20:54:00>     11      0.00180614      0.00038588      0.0
 <Feb21-2023> <20:54:03>     12      0.00047880      0.00007144      0.0
 <Feb21-2023> <20:54:05>     13      0.00048415      0.00005845      0.0
 <Feb21-2023> <20:54:08>     14      0.00018738      0.00002446      0.0
 <Feb21-2023> <20:54:11>     15      0.00010860      0.00001407      0.0
 <Feb21-2023> <20:54:14>     16      0.00003521      0.00000707      0.0
 <Feb21-2023> <20:54:16>     17      0.00003220      0.00000389      0.0
 <Feb21-2023> <20:54:19>     18      0.00003616      0.00000479      0.0
 <Feb21-2023> <20:54:22>     19      0.00000706      0.00000111      0.0
 <Feb21-2023> <20:54:25>     20      0.00000794      0.00000112      0.0
 <Feb21-2023> <20:54:27>     21      0.00001090      0.00000159      0.0
 <Feb21-2023> <20:54:30>     22      0.00000586      0.00000096      0.0
 <Feb21-2023> <20:54:31>  SCF converged
 <Feb21-2023> <20:54:33>     23      0.00000258      0.00000039      0.0
 <Feb21-2023> <20:54:34>  >>>> TOTEN
 <Feb21-2023> <20:54:37>  >>>> POPAN
 <Feb21-2023> <20:54:37>  >>>> DEBYE
 <Feb21-2023> <20:54:37>  >>>> ENGRAD
 <Feb21-2023> <20:54:49>  current energy                               -7.80132090 Hartree
 <Feb21-2023> <20:54:49>  energy change                      -0.00005011     0.00100000    T
 <Feb21-2023> <20:54:49>  constrained gradient max            0.00097594     0.00100000    T
 <Feb21-2023> <20:54:49>  constrained gradient rms            0.00030100     0.00066667    T
 <Feb21-2023> <20:54:49>  gradient max                        0.00097594
 <Feb21-2023> <20:54:49>  gradient rms                        0.00030100
 <Feb21-2023> <20:54:49>  cart. step max                      0.00289704     0.01000000    T
 <Feb21-2023> <20:54:49>  cart. step rms                      0.00102685     0.00666667    T
 <Feb21-2023> <20:54:49>  GEOMETRY CONVERGED
 <Feb21-2023> <20:54:49>  Calculating Energy Terms for Final Geometry
  Coordinates in Geometry Cycle 91
    Atom         X           Y           Z   (Angstrom)
    1.O        -2.928641    2.632017    1.456300
    2.Mo        0.738320   -2.483097   -0.743187
    3.O         2.790869    1.414254   -0.340916
    4.Mo        1.046362    2.301480   -0.749298
    5.O         1.185380   -3.963499    0.033926
    6.O        -1.456131    0.110709    1.201983
    7.O         1.456471    3.968826   -0.598449
    8.Mo       -2.765043   -1.472043    0.090930
    9.O        -3.659175    3.022407   -1.170198
   10.Mo       -2.681448    2.018889   -0.146847
   11.O         3.115757   -0.685670    1.757826
   12.Mo        3.307859   -0.357800    0.036569
   13.O        -1.062240   -2.336784   -0.038288
   14.O         0.425998   -2.825874   -2.409196
   15.P         0.072948    0.193225    1.284167
   16.O        -0.935225    2.319775   -0.770817
   17.O        -3.441323    0.283766   -0.426152
   18.O         0.775401   -0.456775    0.009909
   19.O        -3.512718   -1.983501    1.563611
   20.O        -3.595006   -2.353995   -1.153037
   21.O         2.619536   -1.790497   -0.981535
   22.O         1.139190    1.914751   -2.439309
   23.O         0.555656   -0.592583    2.587946
   24.O         5.011616   -0.380667   -0.275578
   25.O         0.621148    1.644494    1.280195
   26.H         1.558603   -0.682617    2.512930
 <Feb21-2023> <20:54:49>  >>>> CORORT
 <Feb21-2023> <20:54:49>  >>>> CLSMAT
 <Feb21-2023> <20:54:49>  >>>> ORTHON
 <Feb21-2023> <20:54:49>  >>>> GENPT
 <Feb21-2023> <20:54:49>  Block Length= 128
 <Feb21-2023> <20:54:49>  >>>> PTBAS
 <Feb21-2023> <20:54:52>  combining surface points...
 <Feb21-2023> <20:54:52>  combining surface points...
 <Feb21-2023> <20:54:52>  combining surface points...
 <Feb21-2023> <20:54:52>  >>>> CYCLE
 <Feb21-2023> <20:54:56>              |Error|         MaxErr       Wt(A-DIIS)
 <Feb21-2023> <20:54:56>      1      0.05498357      0.00788014
 <Feb21-2023> <20:54:59>      2      0.22232261      0.04579242    100.0
 <Feb21-2023> <20:55:01>      3      0.06024238      0.00941204    100.0
 <Feb21-2023> <20:55:04>      4      0.06982788      0.01139355    100.0
 <Feb21-2023> <20:55:07>      5      0.31180233      0.04872010    100.0
 <Feb21-2023> <20:55:10>      6      0.10625940      0.01613298    100.0
 <Feb21-2023> <20:55:13>      7      0.02392618      0.00324880      2.3
 <Feb21-2023> <20:55:16>      8      0.00987859      0.00165931      0.7
 <Feb21-2023> <20:55:19>      9      0.00676460      0.00123315      0.2
 <Feb21-2023> <20:55:21>     10      0.00201734      0.00033869      0.0
 <Feb21-2023> <20:55:24>     11      0.00110918      0.00018956      0.0
 <Feb21-2023> <20:55:27>     12      0.00053668      0.00009017      0.0
 <Feb21-2023> <20:55:30>     13      0.00015752      0.00003311      0.0
 <Feb21-2023> <20:55:33>     14      0.00022199      0.00002850      0.0
 <Feb21-2023> <20:55:36>     15      0.00007276      0.00000977      0.0
 <Feb21-2023> <20:55:38>     16      0.00011166      0.00001959      0.0
 <Feb21-2023> <20:55:41>     17      0.00001780      0.00000236      0.0
 <Feb21-2023> <20:55:44>     18      0.00002665      0.00000461      0.0
 <Feb21-2023> <20:55:47>     19      0.00000608      0.00000084      0.0
 <Feb21-2023> <20:55:47>  SCF converged
 <Feb21-2023> <20:55:49>     20      0.00000114      0.00000016      0.0
 <Feb21-2023> <20:55:52>  >>>> TOTEN
 <Feb21-2023> <20:55:59>  QTAIM: determining topology...
 <Feb21-2023> <20:56:04>  >>>> POPAN
 <Feb21-2023> <20:56:04>  >>>> DEBYE
 <Feb21-2023> <20:56:04>  >>>> AMETS
 <Feb21-2023> <20:56:05>  >>>> POPUL
 <Feb21-2023> <20:56:05>   Bond Energy          -7.80132090 a.u.
 <Feb21-2023> <20:56:05>   Bond Energy        -212.28474280 eV
 <Feb21-2023> <20:56:05>   Bond Energy       -4895.40       kcal/mol
 <Feb21-2023> <20:56:05>  >>>> ENHESS
 <Feb21-2023> <20:56:12>  === NUCLEUS:     1
 <Feb21-2023> <20:59:05>  === NUCLEUS:     2
 <Feb21-2023> <21:01:48>  === NUCLEUS:     3
 <Feb21-2023> <21:04:34>  === NUCLEUS:     4
 <Feb21-2023> <21:07:20>  === NUCLEUS:     5
 <Feb21-2023> <21:10:07>  === NUCLEUS:     6
 <Feb21-2023> <21:12:51>  === NUCLEUS:     7
 <Feb21-2023> <21:15:38>  === NUCLEUS:     8
 <Feb21-2023> <21:18:25>  === NUCLEUS:     9
 <Feb21-2023> <21:21:09>  === NUCLEUS:    10
 <Feb21-2023> <21:23:52>  === NUCLEUS:    11
 <Feb21-2023> <21:26:32>  === NUCLEUS:    12
 <Feb21-2023> <21:29:18>  === NUCLEUS:    13
 <Feb21-2023> <21:32:05>  === NUCLEUS:    14
 <Feb21-2023> <21:34:49>  === NUCLEUS:    15
 <Feb21-2023> <21:37:32>  === NUCLEUS:    16
 <Feb21-2023> <21:40:16>  === NUCLEUS:    17
 <Feb21-2023> <21:42:59>  === NUCLEUS:    18
 <Feb21-2023> <21:45:40>  === NUCLEUS:    19
 <Feb21-2023> <21:48:27>  === NUCLEUS:    20
 <Feb21-2023> <21:51:24>  === NUCLEUS:    21
 <Feb21-2023> <21:54:19>  === NUCLEUS:    22
 <Feb21-2023> <21:57:13>  === NUCLEUS:    23
 <Feb21-2023> <22:00:05>  === NUCLEUS:    24
 <Feb21-2023> <22:02:59>  === NUCLEUS:    25
 <Feb21-2023> <22:05:56>  === NUCLEUS:    26
 <Feb21-2023> <22:08:32>  >>>> CALC_HESS_PMAT
 <Feb21-2023> <22:09:02>  >>>> CALC_HESS_WMAT
 <Feb21-2023> <22:09:08>  Symmetry  : NOSYM
 <Feb21-2023> <22:09:08>  >>>> FRAGM
 <Feb21-2023> <22:09:08>  Geometry symmetry displacement    1 out of    2
  Coordinates in Geometry Cycle 91
    Atom         X           Y           Z   (Angstrom)
    1.O        -2.927805    2.632489    1.456364
    2.Mo        0.738372   -2.482989   -0.743286
    3.O         2.790880    1.414313   -0.340761
    4.Mo        1.046318    2.301268   -0.749482
    5.O         1.185306   -3.963317    0.034040
    6.O        -1.456191    0.110604    1.201941
    7.O         1.456057    3.968698   -0.598581
    8.Mo       -2.765166   -1.471979    0.090923
    9.O        -3.659144    3.022422   -1.169973
   10.Mo       -2.681388    2.018849   -0.146703
   11.O         3.115702   -0.685632    1.757971
   12.Mo        3.307906   -0.357737    0.036726
   13.O        -1.062323   -2.336592   -0.038828
   14.O         0.426402   -2.825917   -2.409333
   15.P         0.072891    0.193248    1.284138
   16.O        -0.935274    2.318991   -0.771390
   17.O        -3.441990    0.283912   -0.425222
   18.O         0.775416   -0.456694    0.009885
   19.O        -3.512529   -1.984107    1.563528
   20.O        -3.595198   -2.353569   -1.153258
   21.O         2.619641   -1.790403   -0.981436
   22.O         1.139539    1.914572   -2.439480
   23.O         0.555610   -0.592551    2.587912
   24.O         5.011682   -0.380570   -0.275310
   25.O         0.620945    1.644560    1.280145
   26.H         1.558567   -0.682565    2.512908
 <Feb21-2023> <22:09:08>  >>>> CORORT
 <Feb21-2023> <22:09:08>  >>>> CLSMAT
 <Feb21-2023> <22:09:08>  >>>> ORTHON
 <Feb21-2023> <22:09:08>  >>>> GENPT
 <Feb21-2023> <22:09:08>  Block Length= 128
 <Feb21-2023> <22:09:08>  >>>> PTBAS
 <Feb21-2023> <22:09:11>  combining surface points...
 <Feb21-2023> <22:09:11>  combining surface points...
 <Feb21-2023> <22:09:11>  combining surface points...
 <Feb21-2023> <22:09:11>  >>>> CYCLE
 <Feb21-2023> <22:09:15>              |Error|         MaxErr       Wt(A-DIIS)
 <Feb21-2023> <22:09:15>      1      0.05502626      0.00645005
 <Feb21-2023> <22:09:17>      2      0.22238974      0.03634705    100.0
 <Feb21-2023> <22:09:20>      3      0.06056581      0.00745277    100.0
 <Feb21-2023> <22:09:23>      4      0.06836490      0.00900219    100.0
 <Feb21-2023> <22:09:26>      5      0.32004316      0.03801506    100.0
 <Feb21-2023> <22:09:29>      6      0.10947969      0.01314457    100.0
 <Feb21-2023> <22:09:32>      7      0.02052567      0.00199969      1.0
 <Feb21-2023> <22:09:35>      8      0.00947502      0.00130004      0.3
 <Feb21-2023> <22:09:38>      9      0.00650462      0.00090435      0.0
 <Feb21-2023> <22:09:40>     10      0.00188297      0.00023239      0.0
 <Feb21-2023> <22:09:43>     11      0.00102749      0.00010803      0.0
 <Feb21-2023> <22:09:46>     12      0.00052216      0.00007605      0.0
 <Feb21-2023> <22:09:49>     13      0.00017332      0.00002650      0.0
 <Feb21-2023> <22:09:52>     14      0.00015798      0.00001863      0.0
 <Feb21-2023> <22:09:54>     15      0.00006367      0.00000783      0.0
 <Feb21-2023> <22:09:57>     16      0.00007522      0.00001347      0.0
 <Feb21-2023> <22:10:00>     17      0.00001762      0.00000206      0.0
 <Feb21-2023> <22:10:03>     18      0.00002319      0.00000302      0.0
 <Feb21-2023> <22:10:05>     19      0.00000561      0.00000066      0.0
 <Feb21-2023> <22:10:06>  SCF converged
 <Feb21-2023> <22:10:08>     20      0.00000107      0.00000016      0.0
 <Feb21-2023> <22:10:09>  >>>> TOTEN
 <Feb21-2023> <22:10:10>  >>>> POPAN
 <Feb21-2023> <22:10:10>  >>>> DEBYE
 <Feb21-2023> <22:10:10>  >>>> ENGRAD
 <Feb21-2023> <22:10:21>  Geometry symmetry displacement    2 out of    2
  Coordinates in Geometry Cycle 91
    Atom         X           Y           Z   (Angstrom)
    1.O        -2.929477    2.631544    1.456235
    2.Mo        0.738269   -2.483204   -0.743088
    3.O         2.790859    1.414196   -0.341071
    4.Mo        1.046407    2.301692   -0.749114
    5.O         1.185454   -3.963682    0.033811
    6.O        -1.456070    0.110815    1.202025
    7.O         1.456885    3.968954   -0.598317
    8.Mo       -2.764921   -1.472108    0.090938
    9.O        -3.659206    3.022392   -1.170422
   10.Mo       -2.681509    2.018929   -0.146990
   11.O         3.115812   -0.685709    1.757681
   12.Mo        3.307812   -0.357864    0.036411
   13.O        -1.062157   -2.336976   -0.037749
   14.O         0.425593   -2.825830   -2.409058
   15.P         0.073005    0.193202    1.284196
   16.O        -0.935177    2.320559   -0.770244
   17.O        -3.440656    0.283620   -0.427081
   18.O         0.775387   -0.456857    0.009934
   19.O        -3.512906   -1.982895    1.563694
   20.O        -3.594813   -2.354421   -1.152817
   21.O         2.619431   -1.790591   -0.981634
   22.O         1.138840    1.914930   -2.439139
   23.O         0.555703   -0.592615    2.587980
   24.O         5.011550   -0.380765   -0.275845
   25.O         0.621351    1.644428    1.280245
   26.H         1.558639   -0.682668    2.512953
 <Feb21-2023> <22:10:21>  >>>> CORORT
 <Feb21-2023> <22:10:22>  >>>> CLSMAT
 <Feb21-2023> <22:10:22>  >>>> ORTHON
 <Feb21-2023> <22:10:22>  >>>> GENPT
 <Feb21-2023> <22:10:22>  Block Length= 128
 <Feb21-2023> <22:10:22>  >>>> PTBAS
 <Feb21-2023> <22:10:25>  combining surface points...
 <Feb21-2023> <22:10:25>  combining surface points...
 <Feb21-2023> <22:10:25>  combining surface points...
 <Feb21-2023> <22:10:25>  >>>> CYCLE
 <Feb21-2023> <22:10:28>              |Error|         MaxErr       Wt(A-DIIS)
 <Feb21-2023> <22:10:28>      1      0.05508646      0.00643701
 <Feb21-2023> <22:10:31>      2      0.22226922      0.03628367    100.0
 <Feb21-2023> <22:10:34>      3      0.05962644      0.00740471    100.0
 <Feb21-2023> <22:10:37>      4      0.07364906      0.00961020    100.0
 <Feb21-2023> <22:10:40>      5      0.29245558      0.03570803    100.0
 <Feb21-2023> <22:10:43>      6      0.09980258      0.01065251    100.0
 <Feb21-2023> <22:10:46>      7      0.03460317      0.00402808      3.1
 <Feb21-2023> <22:10:48>      8      0.01074452      0.00178339      0.8
 <Feb21-2023> <22:10:51>      9      0.00728099      0.00097461      0.0
 <Feb21-2023> <22:10:54>     10      0.00225223      0.00029045      0.0
 <Feb21-2023> <22:10:57>     11      0.00127645      0.00024856      0.0
 <Feb21-2023> <22:11:00>     12      0.00053825      0.00006548      0.0
 <Feb21-2023> <22:11:03>     13      0.00018901      0.00003223      0.0
 <Feb21-2023> <22:11:05>     14      0.00021684      0.00002982      0.0
 <Feb21-2023> <22:11:08>     15      0.00007670      0.00000983      0.0
 <Feb21-2023> <22:11:11>     16      0.00007519      0.00001018      0.0
 <Feb21-2023> <22:11:14>     17      0.00002457      0.00000359      0.0
 <Feb21-2023> <22:11:16>     18      0.00001908      0.00000245      0.0
 <Feb21-2023> <22:11:19>     19      0.00000348      0.00000053      0.0
 <Feb21-2023> <22:11:20>  SCF converged
 <Feb21-2023> <22:11:22>     20      0.00000212      0.00000034      0.0
 <Feb21-2023> <22:11:23>  >>>> TOTEN
 <Feb21-2023> <22:11:24>  >>>> POPAN
 <Feb21-2023> <22:11:24>  >>>> DEBYE
 <Feb21-2023> <22:11:24>  >>>> ENGRAD
 <Feb21-2023> <22:11:35>  Old frequency:    -11.25431, new:     40.03855
 <Feb21-2023> <22:11:35>  NOTE: Some frequencies have been re-calculated by numerical differentiation
 <Feb21-2023> <22:11:35>        Check the text output file for new values!
 <Feb21-2023> <22:11:35>  NORMAL TERMINATION
 <Feb21-2023> <22:11:35>  END
