
 *******************************************************************************
 *                                                                             *
 *  -------------------------------------                                      *
 *   Amsterdam Density Functional  (ADF)         2019                          *
 *  -------------------------------------                                      *
 *                                               r74351 2019-04-25             *
 *                                                                             *
 *                                                                             *
 *                            =====================                            *
 *                            |                   |                            *
 *                            |     D I R A C     |                            *
 *                            |                   |                            *
 *                            =====================                            *
 *                                                                             *
 *                                                                             *
 *   Online information and documentation:  https://www.scm.com/support/       *
 *   E-mail:  support@scm.com   info@scm.com                                   *
 *                                                                             *
 *   Scientific publications using ADF results must be properly referenced     *
 *   See the User Manuals (or the web site) for recommended citations          *
 *   The terms and conditions of the End User License Agreement apply to       *
 *   the use of ADF, https://www.scm.com/license-terms/                        *
 *                                                                             *
 **********************  x86_64_linux_intel / intelmpi  ************************
 
 Licensed to: Dr. Carles Bo / Institute of Chemical Research of Catalonia ( (ICIQ) / Tarragona / Spain 2022-11-28 14:37:29
 SCM User ID: u7609
  
 DIRAC 2019  RunTime: Feb18-2023 00:43:44  Nodes: 1  Procs: 1

 Temporary files are created in /scratch/kid_0.1550736446

1
 HYDROGEN ATOM RELATIVISTIC, Point Nuc, A and c from libtc   
 N J RN H ZN XION ANUC CLIGHT
 5000    1100.00000000197.36710137  1.00000000  0.00000000    1.007825  0.1370360E+03
  PH   PHI     EPS        DEL        DELRVR
  0.30  0.30     2500.00  0.00001000  0.00001000
 IDIRC  NC1  NDEBU NPRIN  IPUN IRCOR IWCOR
   1   300     0     0     0     0     0
   XALPHA      XLATTER      RNUC
  0.70000000  0.00000000  0.00000000 Point Charge
   XN   XL   XJ      XE          XZ      XDELL
  1.0  0.0  0.5      -1.000       1.000     0.00000
 ICORP=  0  NPCL=  0  DEMP=0.00  PEPS=0.000000
 R(1)=  0.1000000E-08 D=  0.1005080E+01 RNUC=  0.0000000E+00
 converged at cycle   32  DENSITY AVERAGING    0.2400
  MAXIMUM ERROR IN R.V(R) IS   0.79874357E-05
 Q,EY,EV,EZ,ESUM,ETOT,RHO  0.100000E+01 -0.266614E+00 -0.619969E+00 -0.910779E+00 -0.203940E+00 -0.415998E+00  0.337036E-17


 DIRAC CALCULATION
1                    HYDROGEN ATOM RELATIVISTIC, Point Nuc, A and c from libtc


 EXCHANGE COEFFICIENT=  0.7000000           TAIL CORRECTION=  0.           NUCLEAR RADIUS=  0.000E+00
0                       ORBITAL    N    L    J     ELECTRONS     EIGENVALUE                DELTA OF EIGENV.

                          1S1/2  1.0  0.0  0.5     1.000       -0.2039397E+00                 0.2720093E-06


                                        NUCLEAR CHARGE=    1.000000
                            INTEGRAL OF CHARGE DENSITY=    1.000000
                           SUM OF THE ORBITAL ENERGIES=     -0.2039
                                          TOTAL ENERGY=     -0.4160
                                        KINETIC ENERGY=      0.4160
                             NUCLEAR ATTRACTION ENERGY=     -0.9108
                             ELECTRON REPULSION ENERGY=      0.2787
                                       EXCHANGE ENERGY=     -0.2000

 *******************************************************************************

                             D I R A C   E X I T
 NORMAL TERMINATION



 =================
 Timing Statistics
 =================
  
 Total Used :                     CPU=        0.07      System=        0.01     Elapsed=        0.08

 Calls  Section                     ( Mean, Percentage )
 ---------------------------------------------------------------------------------------------------
     2  ><      ................      0.00    0.00             0.00    0.00             0.00    0.01
     1  EXIT PROCEDURE .........      0.07  100.00             0.01  100.00             0.08   99.99


 Currently Open Files (EXIT00)
 ====================

 Unit    Access Format  Status   Type       Ident (file)
 -------------------------------------------------------
   3      SEQ    FORM   TRANSP  NORMAL      LOGFILE
                                          ( logfile )
 
Create H   file=TZP-H
XC
  GGA PBE
End
relativistic ZORA
Corepotentials t12.rel
End

 *******************************************************************************
 *                                                                             *
 *  -------------------------------------                                      *
 *   Amsterdam Density Functional  (ADF)         2019                          *
 *  -------------------------------------                                      *
 *                                               r74351 2019-04-25             *
 *                                                                             *
 *                                                                             *
 *                              =================                              *
 *                              |               |                              *
 *                              |     A D F     |                              *
 *                              |               |                              *
 *                              =================                              *
 *                                                                             *
 *                                                                             *
 *   Online information and documentation:  https://www.scm.com/support/       *
 *   E-mail:  support@scm.com   info@scm.com                                   *
 *                                                                             *
 *   Scientific publications using ADF results must be properly referenced     *
 *   See the User Manuals (or the web site) for recommended citations          *
 *   The terms and conditions of the End User License Agreement apply to       *
 *   the use of ADF, https://www.scm.com/license-terms/                        *
 *                                                                             *
 **********************  x86_64_linux_intel / intelmpi  ************************
 
 Licensed to: Dr. Carles Bo / Institute of Chemical Research of Catalonia ( (ICIQ) / Tarragona / Spain 2022-11-28 14:37:29
 SCM User ID: u7609
  
 ADF 2019  RunTime: Feb18-2023 00:43:44  Nodes: 1  Procs: 1

 Temporary files are created in /scratch/kid_0.520674072

 Hydrogen (TZP)



 ===========================
 A T T A C H E D   F I L E S
 ===========================
  
 CREATE - Data File:    TZP-H
                        Hydrogen (TZP)
 Core Potentials:
         file : t12.rel



 ===============================
 M O D E L   P A R A M E T E R S
 ===============================
  
 DENSITY FUNCTIONAL POTENTIAL (scf)
    LDA:                               PW92                                    == Not Default ==
    Gradient Corrections:              PBEc PBEx                               == Not Default ==

 SPIN  (restricted / unrestr.)
    Molecule:                          Restricted                               

 OTHER ASPECTS
    Relativistic Corrections:          scalar (ZORA,MAPA)                      == Not Default ==

    Nuclear Charge Density Model:      Point Charge Nuclei                      
    Core Treatment:                    Frozen Orbital(s)                        

    Hyperfine or Zeeman Interaction:   ---                                      



 =====================================
 S Y M M E T R Y ,   E L E C T R O N S
 =====================================
  
 Symmetry: ATOM

 Irreducible Representations, including subspecies
 -------------------------------------------------
 S
 P:x  P:y  P:z
 D:z2  D:x2-y2  D:xy  D:xz  D:yz
 F:z3  F:z  F:xyz  F:z2x  F:z2y  F:x  F:y


 Configuration of Valence Electrons
 ==================================

          Occupation Numbers
          -------------------------------------------------
 S        1
 P        0
 D        0
 F        0
          -------------------------------------------------

 Total:   1

 Net Charge: 0 (Nuclei minus Electrons)

 Preset values for MO occupations will be applied through SCF cycle no. 1000000
 Thereafter, the program will assign electrons to MOs that are spatially
 similar to the occupied MOs in a "reference" cycle ("KeepOrbitals").
 The reference cycle is always the PREVIOUS cycle: it will evolve with
 the SCF procedure.



 ================================
 (Slater-type)  F U N C T I O N S  ***  (Basis and Fit)  ***
 ================================
  

 Atom Type    1  (H)
 ==============

 Valence Basis Sets:   4
 -----------------------
   1 S    0.690000
   1 S    0.920000
   1 S    1.580000
   2 P    1.250000


 BAS: List of all Elementary Cartesian Basis Functions
 =====================================================

 The numbering in the list below (to the right of the function characteristics) is referred
 to in print-outs of MO eigenvectors and Mulliken populations in the BAS representation
 (as contrasted to the SFO representation).

 Notes:
 1. The functions are characterized by a polynomial prefactor (powers of x,y,z and r) and
    an exponential decay factor alpha.
 2. Since the basis sets are specific for an atom TYPE, the individual functions occur on
    all atoms of that type.
 3. The word 'Core' in the left margin signals that it is a Core Function (CF) : not a
    degree of freedom in the valence set, but only used to ensure orthogonalization of
    the other valence basis functions on the frozen Core Orbitals.


 (power of) X  Y  Z  R     Alpha  on Atom
            ==========     =====     ==========

 H                                    1
                                  ---------------------------------------------------------------------------
            0  0  0  0     0.690      1
            0  0  0  0     0.920      2
            0  0  0  0     1.580      3
            1  0  0  0     1.250      4
            0  1  0  0     1.250      5
            0  0  1  0     1.250      6

 Total number of charge fitting functions (nprimf)        50
 Total number of Cartesian basis functions (naos)          6
 Total number of Cartesian core functions  (ncos)          0



 BAS: List of all Elementary Cartesian Basis Functions
 =====================================================

 The numbering in the list below (to the right of the function characteristics) is referred
 to in print-outs of MO eigenvectors and Mulliken populations in the BAS representation
 (as contrasted to the SFO representation).

 Notes:
 1. The functions are characterized by a polynomial prefactor (powers of x,y,z and r) and
    an exponential decay factor alpha.
 2. Since the basis sets are specific for an atom TYPE, the individual functions occur on
    all atoms of that type.
 3. The word 'Core' in the left margin signals that it is a Core Function (CF) : not a
    degree of freedom in the valence set, but only used to ensure orthogonalization of
    the other valence basis functions on the frozen Core Orbitals.


 (power of) X  Y  Z  R     Alpha  on Atom
            ==========     =====     ==========

 H                                    1
                                  ---------------------------------------------------------------------------
            0  0  0  0     0.690      1
            0  0  0  0     0.920      2
            0  0  0  0     1.580      3
            1  0  0  0     1.250      4
            0  1  0  0     1.250      5
            0  0  1  0     1.250      6
1
 ***************************************************************************************************



                                              ***********************
                                              *  T E C H N I C A L  *
                                              ***********************
  



 =============================================================
 P A R A L L E L I Z A T I O N  and  V E C T O R I Z A T I O N
 =============================================================
  
 Nr of parallel processes:                                1
 Maximum vector length in NumInt loops:                 128



 =====================
 S C F   U P D A T E S
 =====================
  
 Max. nr. of cycles:                               300
 Convergence criterion:                              0.0000000100
   secondary criterion:                              0.0000000100

 Mix parameter (when DIIS does not apply):           0.2000000000
 Special mix parameter for the first cycle:          1.0000000000
 Mixed ADIIS+SDIIS will be used                  
    Max number of expansion vectors:                10
    Pure ADIIS when Max([F,P]) is above              0.1000000000
    Pure SDIIS when Max([F,P]) is below              0.0010000000
 Automatic ElectronSmearing (in case of problematic SCF convergence) disabled



 =================
 P R E C I S I O N  ***  (General: NumInt, NeglectFunctionTails, ...)  ***
 =================
  

 NumInt:           Target precision:                12.0000000000
 -------           Initial precision:               10.0000000000
                   Min. precision (optimization):   10.0000000000

 Neglect Functions:          Basis functions:        0.1000000000E-13
 ------------------          Fit functions:          0.1000000000E-13



 ===========================
 L I N E A R   S C A L I N G
 ===========================
  

 Cut-off radii density fit:                        0.1000000000E-97
 Overlap cut-off criterion AO matrix elements:     0.1000000000E-97
 Cut-offs for Coulomb potential and fitted density:0.1000000000E-97
 Cut-off criterion for Coulomb multipole terms:    0.1000000000E-97
 Progressive Convergence parameter:                 0.000000000    
1
 ***************************************************************************************************



                                            ***************************
                                            *  C O M P U T A T I O N  *
                                            ***************************
  

 Number of elements of the density matrix on this node (used, total):        21        21



 ===========================================
 Numerical Integration : Fuzzy Cells (Becke)
 ===========================================
  
 Becke grid quality: VERYGOOD       
  
 Lebedev angular grid order:             min:  13 max:  41
 Nr. of radial points:                   min:  64 max:  64

 Total nr. of points:         64
 Nr. of blocks:                1
 Block length:                64
 Nr. of dummy points:          0


 Test of Precision of the Numerical Integration Grid
 ===================================================

 Integral of the Total Core Density:                   0.00000000000000



 ========================
 Density Fitting (zlmFit)
 ========================
  
 ZlmFit Fit Quality: VERYGOOD       
  
 Max L-expansion:                        min:   0 max:   0
 Nr. of radial interpolation points:     min: 120 max: 120



 =====
 S C F  ***  ScaSCF  ***
 =====
  

 CYCLE    1
 SCF Error: norm([F,P])=      0.000000000000, max([F,P])=      0.000000000000
 orbitals (Q,E):
 ---------------
 S :1...3            ( 1.00    -0.5000)  ( 0.00    -0.0900)  ( 0.00     1.2936)
 P :1...1            ( 0.00     0.1562)

 CYCLE    2
 SCF Error: norm([F,P])=      0.031537872292, max([F,P])=      0.030110494752
 orbitals (Q,E):
 ---------------
 S :1...2            ( 1.00    -0.2218)  ( 0.00     0.1019)
 P :1...1            ( 0.00     0.4189)

 CYCLE    3
  SDIIS (wt  0.000):  0.1996  0.8004
 A-DIIS (wt  1.000):  0.0000  1.0000
  DIIS coefficients:  0.0000  1.0000
 SCF Error: norm([F,P])=      0.008617989401, max([F,P])=      0.008343029399
 orbitals (Q,E):
 ---------------
 S :1...2            ( 1.00    -0.2422)  ( 0.00     0.0889)
 P :1...1            ( 0.00     0.4024)

 CYCLE    4
  SDIIS (wt  0.993):  0.1666  0.8334
 A-DIIS (wt  0.007):  0.0000  1.0000
  DIIS coefficients:  0.1654  0.8346
 SCF Error: norm([F,P])=      0.001732350026, max([F,P])=      0.001718616814
 orbitals (Q,E):
 ---------------
 S :1...2            ( 1.00    -0.2385)  ( 0.00     0.0908)
 P :1...1            ( 0.00     0.4054)

 CYCLE    5
  SDIIS (wt  1.000):  0.0236  0.9764
  DIIS coefficients:  0.0236  0.9764
 SCF Error: norm([F,P])=      0.000043673449, max([F,P])=      0.000039769875
 orbitals (Q,E):
 ---------------
 S :1...2            ( 1.00    -0.2386)  ( 0.00     0.0908)
 P :1...1            ( 0.00     0.4054)

 CYCLE    6
  SDIIS (wt  1.000): -0.0577  1.0577
  DIIS coefficients: -0.0577  1.0577
 SCF Error: norm([F,P])=      0.000002383805, max([F,P])=      0.000002158128
 orbitals (Q,E):
 ---------------
 S :1...2            ( 1.00    -0.2386)  ( 0.00     0.0908)
 P :1...1            ( 0.00     0.4054)

 CYCLE    7
  SDIIS (wt  1.000): -0.0032  1.0032
  DIIS coefficients: -0.0032  1.0032
 SCF Error: norm([F,P])=      0.000000007721, max([F,P])=      0.000000007228
 orbitals (Q,E):
 ---------------
 S :1...2            ( 1.00    -0.2386)  ( 0.00     0.0908)
 P :1...1            ( 0.00     0.4054)

 SCF CONVERGED

 CYCLE    8
1
 ***************************************************************************************************



                                                *******************
                                                *  R E S U L T S  *
                                                *******************
  
 *** Using FIT density in Focky
  SDIIS (wt  1.000):  0.0192  0.9808
  DIIS coefficients:  0.0192  0.9808
 SCF Error: norm([F,P])=      0.000000000151, max([F,P])=      0.000000000141

 Scaled ZORA Orbital Energies, per Irrep and Spin:
 =================================================
                        Occup              E (au)              E (eV)       Diff (eV) with prev. cycle
                        -----      --------------------        ------       --------------------------
 S
               1        1.000     -0.23861775226993E+00        -6.493               7.43E-09
               2        0.000      0.90791701709251E-01         2.471
               3        0.000      0.15217530108908E+01        41.409
 P
               1        0.000      0.40537978060393E+00        11.031


 Partially Occupied:
               1 S                -0.23861775226993E+00
  
 LUMO :        2 S                 0.90791701709251E-01
  


 Orbital Energies, all Irreps
 ========================================

 Irrep        no.  (spin)   Occup              E (au)                E (eV)
 ---------------------------------------------------------------------------
 S             1             1.00       -0.23861775226993E+00        -6.4931
 S             2             0.00        0.90791701709251E-01         2.4706
 P             1             0.00        0.40537978060393E+00        11.0309
 S             3             0.00        0.15217530108908E+01        41.4090


 All Electron Calculation, thus no Orbital Energies of the Core Orbitals are calculated



 =======================================
 M U L L I K E N   P O P U L A T I O N S
 =======================================
  
 The survey below gives for each atom:
 a) the total charge (Z minus electrons)
 b) the net spin polarization (nr of electrons spin-A minus spin-B)
 c) for each spin the atomic electron valence density (integrated) per L-value.

 Atom              Charge    Spin density          S         P         D         F
 ----              ------    ------------       ------    ------    ------    ------
 1 H              -0.0000                       1.0000    0.0000    0.0000    0.0000

 Populations of individual BAS functions
 ----------------------------------------
 1 H            0.2104  0.6788  0.1107  0.0000  0.0000  0.0000

 Gross Charges per Atom (Z minus electrons)
 ==========================================
            -0.0000
 Net Total: -0.00000000



 =======================================================================
 Electrostatic potential at the Nuclei due to electrons and other nuclei
 =======================================================================
  
         Atom                  Potential
         ----                  ---------
     1)   H                   0.94468022
 
 
 ========================
 No memory problems found
 ========================
 
 Maximum number of active allocate calls:         306
 
 *******************************************************************************

                             A D F   E X I T
 NORMAL TERMINATION



 =================
 Timing Statistics
 =================
  
 Total Used :                     CPU=        0.35      System=        0.02     Elapsed=        0.40

 Calls  Section                     ( Mean, Percentage )
 ---------------------------------------------------------------------------------------------------
     3  ><      ................      0.00    1.15             0.00    0.00             0.00    1.15
     1  INIT    ................      0.07   20.69             0.00    0.00             0.08   19.97
     1  GEOMET  ................      0.01    2.30             0.01   50.00             0.03    6.26
     1  INPUTA  ................      0.00    1.15             0.00    0.00             0.00    0.88
     1  MAINSY  ................      0.00    1.15             0.00   16.67             0.01    3.23
     1  SYMFIT  ................      0.00    1.15             0.00    0.00             0.00    0.39
     1  CORORT  ................      0.00    0.00             0.00    0.00             0.00    0.34
     1  SYMORB  ................      0.00    0.00             0.00    0.00             0.00    0.18
     1  CLSMAT  ................      0.00    1.15             0.00    0.00             0.01    1.31
     1  ORTHON  ................      0.01    2.30             0.00    0.00             0.01    1.26
     1  GENPT   ................      0.01    3.45             0.00    0.00             0.01    3.21
     1  PTBAS   ................      0.00    1.15             0.00    0.00             0.00    1.17
     8  FOCKY   ................      0.02   48.28             0.00   33.33             0.02   45.46
     8  FOCKTR  ................      0.00    0.00             0.00    0.00             0.00    0.98
     8  SDIIS   ................      0.00    6.90             0.00    0.00             0.00    5.64
     1  COREPS  ................      0.01    3.45             0.00    0.00             0.01    3.69
     1  POPAN   ................      0.00    1.15             0.00    0.00             0.00    1.15
     1  DEBYE   ................      0.00    1.15             0.00    0.00             0.00    0.49
     1  EXIT PROCEDURE .........      0.01    3.45             0.00    0.00             0.01    3.25


 Currently Open Files (EXIT00)
 ====================

 Unit    Access Format  Status   Type       Ident (file)
 -------------------------------------------------------
   3      SEQ    FORM   TRANSP  NORMAL      LOGFILE
                                          ( logfile )

 ***************************************************************************************************
 (LOGFILE)
 <Feb18-2023> <00:43:44>  DIRAC 2019  RunTime: Feb18-2023 00:43:44  Nodes: 1  Procs: 1
 <Feb18-2023> <00:43:44>  NORMAL TERMINATION
 <Feb18-2023> <00:43:44>  END
 <Feb18-2023> <00:43:44>  ADF 2019  RunTime: Feb18-2023 00:43:44  Nodes: 1  Procs: 1
 <Feb18-2023> <00:43:44>  Hydrogen (TZP)
 <Feb18-2023> <00:43:44>  RunType   : CREATE
 <Feb18-2023> <00:43:44>  Net Charge: 0 (Nuclei minus Electrons)
 <Feb18-2023> <00:43:44>  Symmetry  : ATOM
  Coordinates
    Atom         X           Y           Z   (Angstrom)
    1.H         0.000000    0.000000    0.000000
 <Feb18-2023> <00:43:44>  >>>> CORORT
 <Feb18-2023> <00:43:44>  >>>> CLSMAT
 <Feb18-2023> <00:43:44>  >>>> ORTHON
 <Feb18-2023> <00:43:44>  >>>> GENPT
 <Feb18-2023> <00:43:44>  Block Length=  64
 <Feb18-2023> <00:43:44>  >>>> PTBAS
 <Feb18-2023> <00:43:44>  >>>> CYCLE
 <Feb18-2023> <00:43:44>              |Error|         MaxErr       Wt(A-DIIS)
 <Feb18-2023> <00:43:44>      1      0.00000000      0.00000000
 <Feb18-2023> <00:43:44>      2      0.03153787      0.03011049
 <Feb18-2023> <00:43:44>      3      0.00861799      0.00834303    100.0
 <Feb18-2023> <00:43:44>      4      0.00173235      0.00171862      0.7
 <Feb18-2023> <00:43:44>      5      0.00004367      0.00003977      0.0
 <Feb18-2023> <00:43:44>      6      0.00000238      0.00000216      0.0
 <Feb18-2023> <00:43:44>      7      0.00000001      0.00000001      0.0
 <Feb18-2023> <00:43:44>  SCF converged
 <Feb18-2023> <00:43:44>      8      0.00000000      0.00000000      0.0
 <Feb18-2023> <00:43:44>  >>>> POPAN
 <Feb18-2023> <00:43:44>  >>>> DEBYE
 <Feb18-2023> <00:43:44>  NORMAL TERMINATION
 <Feb18-2023> <00:43:44>  END

 *******************************************************************************
 *                                                                             *
 *  -------------------------------------                                      *
 *   Amsterdam Density Functional  (ADF)         2019                          *
 *  -------------------------------------                                      *
 *                                               r74351 2019-04-25             *
 *                                                                             *
 *                                                                             *
 *                            =====================                            *
 *                            |                   |                            *
 *                            |     D I R A C     |                            *
 *                            |                   |                            *
 *                            =====================                            *
 *                                                                             *
 *                                                                             *
 *   Online information and documentation:  https://www.scm.com/support/       *
 *   E-mail:  support@scm.com   info@scm.com                                   *
 *                                                                             *
 *   Scientific publications using ADF results must be properly referenced     *
 *   See the User Manuals (or the web site) for recommended citations          *
 *   The terms and conditions of the End User License Agreement apply to       *
 *   the use of ADF, https://www.scm.com/license-terms/                        *
 *                                                                             *
 **********************  x86_64_linux_intel / intelmpi  ************************
 
 Licensed to: Dr. Carles Bo / Institute of Chemical Research of Catalonia ( (ICIQ) / Tarragona / Spain 2022-11-28 14:37:29
 SCM User ID: u7609
  
 DIRAC 2019  RunTime: Feb18-2023 00:43:44  Nodes: 1  Procs: 1

 Temporary files are created in /scratch/kid_0.1846195279

1
 PHOSPHORUS ATOM 1s CORE RELATIVISTIC, Point Nuc, A and c fro
 N J RN H ZN XION ANUC CLIGHT
 5000    7100.00000000197.36710137 15.00000000  0.00000000   30.973761  0.1370360E+03
  PH   PHI     EPS        DEL        DELRVR
  0.30  0.30     2500.00  0.00001000  0.00001000
 IDIRC  NC1  NDEBU NPRIN  IPUN IRCOR IWCOR
   1   300     0     0     0     0     1
   XALPHA      XLATTER      RNUC
  0.70000000  0.00000000  0.00000000 Point Charge
   XN   XL   XJ      XE          XZ      XDELL
  1.0  0.0  0.5    -600.000       2.000     0.00000
  2.0  0.0  0.5     -75.000       2.000     0.00000
  2.0  1.0  0.5     -70.000       2.000     0.00000
  2.0  1.0  1.5     -70.000       4.000     0.00000
  3.0  0.0  0.5     -25.000       2.000     0.00000
  3.0  1.0  0.5      -0.250       2.000     0.00000
  3.0  1.0  1.5      -0.250       1.000     0.00000
 ICORP=  0  NPCL=  0  DEMP=0.00  PEPS=0.000000
 R(1)=  0.1000000E-08 D=  0.1005080E+01 RNUC=  0.0000000E+00
 converged at cycle   47  DENSITY AVERAGING    0.3000
  MAXIMUM ERROR IN R.V(R) IS   0.93255186E-05
 Q,EY,EV,EZ,ESUM,ETOT,RHO  0.150000E+02 -0.290161E+02 -0.536820E+03 -0.814855E+03 -0.194417E+03 -0.340688E+03  0.340722E-13


 DIRAC CALCULATION
1                    PHOSPHORUS ATOM 1s CORE RELATIVISTIC, Point Nuc, A and c from libtc


 EXCHANGE COEFFICIENT=  0.7000000           TAIL CORRECTION=  0.           NUCLEAR RADIUS=  0.000E+00
0                       ORBITAL    N    L    J     ELECTRONS     EIGENVALUE                DELTA OF EIGENV.

                          1S1/2  1.0  0.0  0.5     2.000       -0.7640874E+02                 0.2597240E-06
                          2S1/2  2.0  0.0  0.5     2.000       -0.6353640E+01                 0.3482713E-07
                          2P1/2  2.0  1.0  0.5     2.000       -0.4588256E+01                 0.3010938E-07
                          2P3/2  2.0  1.0  1.5     4.000       -0.4554413E+01                 0.2993762E-07
                          3S1/2  3.0  0.0  0.5     2.000       -0.4844206E+00                 0.1693624E-07
                          3P1/2  3.0  1.0  0.5     2.000       -0.1770291E+00                 0.1234259E-07
                          3P3/2  3.0  1.0  1.5     1.000       -0.1750217E+00                 0.1224459E-07


                                        NUCLEAR CHARGE=   15.000000
                            INTEGRAL OF CHARGE DENSITY=   15.000000
                           SUM OF THE ORBITAL ENERGIES=   -194.4169
                                          TOTAL ENERGY=   -340.6884
                                        KINETIC ENERGY=    342.4034
                             NUCLEAR ATTRACTION ENERGY=   -814.8554
                             ELECTRON REPULSION ENERGY=    153.5256
                                       EXCHANGE ENERGY=    -21.7621

 *******************************************************************************

                             D I R A C   E X I T
 NORMAL TERMINATION



 =================
 Timing Statistics
 =================
  
 Total Used :                     CPU=        0.26      System=        0.02     Elapsed=        0.29

 Calls  Section                     ( Mean, Percentage )
 ---------------------------------------------------------------------------------------------------
     2  ><      ................      0.00    0.00             0.00    0.00             0.00    0.00
     1  EXIT PROCEDURE .........      0.26  100.00             0.02  100.00             0.29  100.00


 Currently Open Files (EXIT00)
 ====================

 Unit    Access Format  Status   Type       Ident (file)
 -------------------------------------------------------
   3      SEQ    FORM   TRANSP  NORMAL      LOGFILE
                                          ( logfile )
 
Create P   file=TZP-P.1s
XC
  GGA PBE
End
relativistic ZORA
Corepotentials t12.rel
End

 *******************************************************************************
 *                                                                             *
 *  -------------------------------------                                      *
 *   Amsterdam Density Functional  (ADF)         2019                          *
 *  -------------------------------------                                      *
 *                                               r74351 2019-04-25             *
 *                                                                             *
 *                                                                             *
 *                              =================                              *
 *                              |               |                              *
 *                              |     A D F     |                              *
 *                              |               |                              *
 *                              =================                              *
 *                                                                             *
 *                                                                             *
 *   Online information and documentation:  https://www.scm.com/support/       *
 *   E-mail:  support@scm.com   info@scm.com                                   *
 *                                                                             *
 *   Scientific publications using ADF results must be properly referenced     *
 *   See the User Manuals (or the web site) for recommended citations          *
 *   The terms and conditions of the End User License Agreement apply to       *
 *   the use of ADF, https://www.scm.com/license-terms/                        *
 *                                                                             *
 **********************  x86_64_linux_intel / intelmpi  ************************
 
 Licensed to: Dr. Carles Bo / Institute of Chemical Research of Catalonia ( (ICIQ) / Tarragona / Spain 2022-11-28 14:37:29
 SCM User ID: u7609
  
 ADF 2019  RunTime: Feb18-2023 00:43:45  Nodes: 1  Procs: 1

 Temporary files are created in /scratch/kid_0.1140604907

 Phosphorus (TZP, 1s frozen)



 ===========================
 A T T A C H E D   F I L E S
 ===========================
  
 CREATE - Data File:    TZP-P.1s
                        Phosphorus (TZP, 1s frozen)
 Core Potentials:
         file : t12.rel



 ===============================
 M O D E L   P A R A M E T E R S
 ===============================
  
 DENSITY FUNCTIONAL POTENTIAL (scf)
    LDA:                               PW92                                    == Not Default ==
    Gradient Corrections:              PBEc PBEx                               == Not Default ==

 SPIN  (restricted / unrestr.)
    Molecule:                          Restricted                               

 OTHER ASPECTS
    Relativistic Corrections:          scalar (ZORA,MAPA)                      == Not Default ==

    Nuclear Charge Density Model:      Point Charge Nuclei                      
    Core Treatment:                    Frozen Orbital(s)                        

    Hyperfine or Zeeman Interaction:   ---                                      



 =====================================
 S Y M M E T R Y ,   E L E C T R O N S
 =====================================
  
 Symmetry: ATOM

 Irreducible Representations, including subspecies
 -------------------------------------------------
 S
 P:x  P:y  P:z
 D:z2  D:x2-y2  D:xy  D:xz  D:yz
 F:z3  F:z  F:xyz  F:z2x  F:z2y  F:x  F:y


 Configuration of Valence Electrons
 ==================================

          Occupation Numbers
          -------------------------------------------------
 S        2*2
 P        6 3
 D        0
 F        0
          -------------------------------------------------

 Total:   13

 Net Charge: 0 (Nuclei minus Electrons)

 Preset values for MO occupations will be applied through SCF cycle no. 1000000
 Thereafter, the program will assign electrons to MOs that are spatially
 similar to the occupied MOs in a "reference" cycle ("KeepOrbitals").
 The reference cycle is always the PREVIOUS cycle: it will evolve with
 the SCF procedure.



 ================================
 (Slater-type)  F U N C T I O N S  ***  (Basis and Fit)  ***
 ================================
  

 Atom Type    1  (P)
 ==============

 Valence Basis Sets:  12
 -----------------------
   1 S   12.550000
   2 S    5.600000
   2 S    4.050000
   2 P    7.450000
   2 P    4.100000
   3 S    1.300000
   3 S    1.850000
   3 S    2.650000
   3 P    0.850000
   3 P    1.300000
   3 P    2.050000
   3 D    1.900000

 Frozen Core Shells
 ------------------
    S:  1


 BAS: List of all Elementary Cartesian Basis Functions
 =====================================================

 The numbering in the list below (to the right of the function characteristics) is referred
 to in print-outs of MO eigenvectors and Mulliken populations in the BAS representation
 (as contrasted to the SFO representation).

 Notes:
 1. The functions are characterized by a polynomial prefactor (powers of x,y,z and r) and
    an exponential decay factor alpha.
 2. Since the basis sets are specific for an atom TYPE, the individual functions occur on
    all atoms of that type.
 3. The word 'Core' in the left margin signals that it is a Core Function (CF) : not a
    degree of freedom in the valence set, but only used to ensure orthogonalization of
    the other valence basis functions on the frozen Core Orbitals.


 (power of) X  Y  Z  R     Alpha  on Atom
            ==========     =====     ==========

 P                                    1
                                  ---------------------------------------------------------------------------
    Core    0  0  0  0    12.550      1
            0  0  0  1     5.600      2
            0  0  0  1     4.050      3
            1  0  0  0     7.450      4
            0  1  0  0     7.450      5
            0  0  1  0     7.450      6
            1  0  0  0     4.100      7
            0  1  0  0     4.100      8
            0  0  1  0     4.100      9
            0  0  0  2     1.300     10
            0  0  0  2     1.850     11
            0  0  0  2     2.650     12
            1  0  0  1     0.850     13
            0  1  0  1     0.850     14
            0  0  1  1     0.850     15
            1  0  0  1     1.300     16
            0  1  0  1     1.300     17
            0  0  1  1     1.300     18
            1  0  0  1     2.050     19
            0  1  0  1     2.050     20
            0  0  1  1     2.050     21
            2  0  0  0     1.900     22
            1  1  0  0     1.900     23
            1  0  1  0     1.900     24
            0  2  0  0     1.900     25
            0  1  1  0     1.900     26
            0  0  2  0     1.900     27

 Total number of charge fitting functions (nprimf)       106
 Total number of Cartesian basis functions (naos)         27
 Total number of Cartesian core functions  (ncos)          1



 BAS: List of all Elementary Cartesian Basis Functions
 =====================================================

 The numbering in the list below (to the right of the function characteristics) is referred
 to in print-outs of MO eigenvectors and Mulliken populations in the BAS representation
 (as contrasted to the SFO representation).

 Notes:
 1. The functions are characterized by a polynomial prefactor (powers of x,y,z and r) and
    an exponential decay factor alpha.
 2. Since the basis sets are specific for an atom TYPE, the individual functions occur on
    all atoms of that type.
 3. The word 'Core' in the left margin signals that it is a Core Function (CF) : not a
    degree of freedom in the valence set, but only used to ensure orthogonalization of
    the other valence basis functions on the frozen Core Orbitals.


 (power of) X  Y  Z  R     Alpha  on Atom
            ==========     =====     ==========

 P                                    1
                                  ---------------------------------------------------------------------------
    Core    0  0  0  0    12.550      1
            0  0  0  1     5.600      2
            0  0  0  1     4.050      3
            1  0  0  0     7.450      4
            0  1  0  0     7.450      5
            0  0  1  0     7.450      6
            1  0  0  0     4.100      7
            0  1  0  0     4.100      8
            0  0  1  0     4.100      9
            0  0  0  2     1.300     10
            0  0  0  2     1.850     11
            0  0  0  2     2.650     12
            1  0  0  1     0.850     13
            0  1  0  1     0.850     14
            0  0  1  1     0.850     15
            1  0  0  1     1.300     16
            0  1  0  1     1.300     17
            0  0  1  1     1.300     18
            1  0  0  1     2.050     19
            0  1  0  1     2.050     20
            0  0  1  1     2.050     21
            2  0  0  0     1.900     22
            1  1  0  0     1.900     23
            1  0  1  0     1.900     24
            0  2  0  0     1.900     25
            0  1  1  0     1.900     26
            0  0  2  0     1.900     27
1
 ***************************************************************************************************



                                              ***********************
                                              *  T E C H N I C A L  *
                                              ***********************
  



 =============================================================
 P A R A L L E L I Z A T I O N  and  V E C T O R I Z A T I O N
 =============================================================
  
 Nr of parallel processes:                                1
 Maximum vector length in NumInt loops:                 128



 =====================
 S C F   U P D A T E S
 =====================
  
 Max. nr. of cycles:                               300
 Convergence criterion:                              0.0000000100
   secondary criterion:                              0.0000000100

 Mix parameter (when DIIS does not apply):           0.2000000000
 Special mix parameter for the first cycle:          1.0000000000
 Mixed ADIIS+SDIIS will be used                  
    Max number of expansion vectors:                10
    Pure ADIIS when Max([F,P]) is above              0.1000000000
    Pure SDIIS when Max([F,P]) is below              0.0010000000
 Automatic ElectronSmearing (in case of problematic SCF convergence) disabled



 =================
 P R E C I S I O N  ***  (General: NumInt, NeglectFunctionTails, ...)  ***
 =================
  

 NumInt:           Target precision:                12.0000000000
 -------           Initial precision:               10.0000000000
                   Min. precision (optimization):   10.0000000000

 Neglect Functions:          Basis functions:        0.1000000000E-13
 ------------------          Fit functions:          0.1000000000E-13



 ===========================
 L I N E A R   S C A L I N G
 ===========================
  

 Cut-off radii density fit:                        0.1000000000E-97
 Overlap cut-off criterion AO matrix elements:     0.1000000000E-97
 Cut-offs for Coulomb potential and fitted density:0.1000000000E-97
 Cut-off criterion for Coulomb multipole terms:    0.1000000000E-97
 Progressive Convergence parameter:                 0.000000000    
1
 ***************************************************************************************************



                                            ***************************
                                            *  C O M P U T A T I O N  *
                                            ***************************
  

 Number of elements of the density matrix on this node (used, total):       378       378



 ===========================================
 Numerical Integration : Fuzzy Cells (Becke)
 ===========================================
  
 Becke grid quality: VERYGOOD       
  
 Lebedev angular grid order:             min:  13 max:  41
 Nr. of radial points:                   min:  76 max:  76

 Total nr. of points:         76
 Nr. of blocks:                1
 Block length:                76
 Nr. of dummy points:          0


 Test of Precision of the Numerical Integration Grid
 ===================================================

 Integral of the Total Core Density:                   1.99999999908170
 Relative Error:                                      -4.592E-10



 ========================
 Density Fitting (zlmFit)
 ========================
  
 ZlmFit Fit Quality: VERYGOOD       
  
 Max L-expansion:                        min:   0 max:   0
 Nr. of radial interpolation points:     min: 190 max: 190



 =====
 S C F  ***  ScaSCF  ***
 =====
  

 CYCLE    1
 SCF Error: norm([F,P])=      0.000000000000, max([F,P])=      0.000000000000
 orbitals (Q,E):
 ---------------
 S :1...5            ( 2.00   -23.0992)  ( 2.00    -9.8031)  ( 0.00    -5.2886)  ( 0.00    -3.1440)
                     ( 0.00    -1.2993)
 P :1...5            ( 6.00   -22.3278)  ( 3.00    -9.2322)  ( 0.00    -4.8937)  ( 0.00    -3.0142)
                     ( 0.00    -1.9614)
 D :1...1            ( 0.00    -6.4318)

 CYCLE    2
  SDIIS (wt  0.000):  1.0000  0.0000
 A-DIIS (wt  1.000):  0.1145  0.8855
  DIIS coefficients:  0.1145  0.8855
 SCF Error: norm([F,P])=     18.574199763001, max([F,P])=      5.729460424591
 orbitals (Q,E):
 ---------------
 S :1...3            ( 2.00    -4.5689)  ( 2.00    -0.5693)  ( 0.00    -0.0589)
 P :1...3            ( 6.00    -2.5820)  ( 3.00    -0.3376)  ( 0.00    -0.0879)
 D :1...1            ( 0.00     0.3219)

 CYCLE    3
  SDIIS (wt  0.000):  0.2387  0.7613
 A-DIIS (wt  1.000):  0.0000  1.0000
  DIIS coefficients:  0.0000  1.0000
 SCF Error: norm([F,P])=      7.892246338364, max([F,P])=      2.592954182835
 orbitals (Q,E):
 ---------------
 S :1...3            ( 2.00    -8.2146)  ( 2.00    -0.9843)  ( 0.00    -0.0433)
 P :1...3            ( 6.00    -6.5635)  ( 3.00    -0.6019)  ( 0.00    -0.0049)
 D :1...1            ( 0.00    -0.0107)

 CYCLE    4
  SDIIS (wt  0.000): -0.0871  0.2952  0.7919
 A-DIIS (wt  1.000):  0.0000  0.1757  0.8243
  DIIS coefficients:  0.0000  0.1757  0.8243
 SCF Error: norm([F,P])=      4.387176641077, max([F,P])=      1.761626650861
 orbitals (Q,E):
 ---------------
 S :1...3            ( 2.00    -5.8126)  ( 2.00    -0.3504)  ( 0.00     0.1791)
 P :1...3            ( 6.00    -3.9508)  ( 3.00    -0.0835)  ( 0.00     0.1310)
 D :1...1            ( 0.00     0.5508)

 CYCLE    5
  SDIIS (wt  0.000): -0.0109 -0.0602  0.1941  0.8770
 A-DIIS (wt  1.000):  0.0000  0.0000  0.0000  1.0000
  DIIS coefficients:  0.0000  0.0000  0.0000  1.0000
 SCF Error: norm([F,P])=      1.324345584458, max([F,P])=      0.466956153840
 orbitals (Q,E):
 ---------------
 S :1...3            ( 2.00    -6.8907)  ( 2.00    -0.7073)  ( 0.00     0.0342)
 P :1...3            ( 6.00    -5.0922)  ( 3.00    -0.3650)  ( 0.00     0.0330)
 D :1...1            ( 0.00     0.1959)

 CYCLE    6
  SDIIS (wt  0.000):  0.0000 -0.0289 -0.0346  0.4584  0.6050
 A-DIIS (wt  1.000):  0.0000  0.0000  0.0000  0.3111  0.6889
  DIIS coefficients:  0.0000  0.0000  0.0000  0.3111  0.6889
 SCF Error: norm([F,P])=      0.894656609953, max([F,P])=      0.328552344502
 orbitals (Q,E):
 ---------------
 S :1...3            ( 2.00    -6.3109)  ( 2.00    -0.4896)  ( 0.00     0.1210)
 P :1...3            ( 6.00    -4.4823)  ( 3.00    -0.1842)  ( 0.00     0.0870)
 D :1...1            ( 0.00     0.4072)

 CYCLE    7
  SDIIS (wt  0.437):  0.0003 -0.0004 -0.0106 -0.0415  0.1385  0.9137
 A-DIIS (wt  0.563):  0.0000  0.0000  0.0000  0.0000  0.0000  1.0000
  DIIS coefficients:  0.0001 -0.0002 -0.0046 -0.0181  0.0605  0.9623
 SCF Error: norm([F,P])=      0.152753231532, max([F,P])=      0.056768903175
 orbitals (Q,E):
 ---------------
 S :1...3            ( 2.00    -6.4268)  ( 2.00    -0.5264)  ( 0.00     0.1084)
 P :1...3            ( 6.00    -4.6039)  ( 3.00    -0.2126)  ( 0.00     0.0772)
 D :1...1            ( 0.00     0.3702)

 CYCLE    8
  SDIIS (wt  0.777): -0.0000 -0.0007  0.0025  0.0136 -0.0400  0.1180  0.9067
 A-DIIS (wt  0.223):  0.0000  0.0000  0.0000  0.0000  0.0000  0.0410  0.9590
  DIIS coefficients: -0.0000 -0.0005  0.0019  0.0105 -0.0311  0.1008  0.9184
 SCF Error: norm([F,P])=      0.062117061218, max([F,P])=      0.023065151090
 orbitals (Q,E):
 ---------------
 S :1...3            ( 2.00    -6.3871)  ( 2.00    -0.5116)  ( 0.00     0.1144)
 P :1...3            ( 6.00    -4.5623)  ( 3.00    -0.2008)  ( 0.00     0.0809)
 D :1...1            ( 0.00     0.3849)

 CYCLE    9
  SDIIS (wt  0.976):  0.0000  0.0000 -0.0001 -0.0000 -0.0006  0.0067  0.1535  0.8406
 A-DIIS (wt  0.024):  0.0000  0.0000  0.0000  0.0000  0.0000  0.0000  0.0000  1.0000
  DIIS coefficients:  0.0000  0.0000 -0.0001 -0.0000 -0.0006  0.0065  0.1498  0.8445
 SCF Error: norm([F,P])=      0.008957667695, max([F,P])=      0.003406470825
 orbitals (Q,E):
 ---------------
 S :1...3            ( 2.00    -6.3923)  ( 2.00    -0.5136)  ( 0.00     0.1136)
 P :1...3            ( 6.00    -4.5677)  ( 3.00    -0.2024)  ( 0.00     0.0804)
 D :1...1            ( 0.00     0.3830)

 CYCLE   10
  SDIIS (wt  1.000): -0.0000  0.0000 -0.0000 -0.0000  0.0000  0.0002  0.0031  0.0372  0.9595
  DIIS coefficients: -0.0000  0.0000 -0.0000 -0.0000  0.0000  0.0002  0.0031  0.0372  0.9595
 SCF Error: norm([F,P])=      0.000163653333, max([F,P])=      0.000063717608
 orbitals (Q,E):
 ---------------
 S :1...3            ( 2.00    -6.3922)  ( 2.00    -0.5136)  ( 0.00     0.1136)
 P :1...3            ( 6.00    -4.5676)  ( 3.00    -0.2024)  ( 0.00     0.0804)
 D :1...1            ( 0.00     0.3830)

 CYCLE   11
  SDIIS (wt  1.000):  0.0000  0.0000 -0.0000 -0.0002 -0.0016 -0.0226  1.0244
  DIIS coefficients:  0.0000  0.0000 -0.0000 -0.0002 -0.0016 -0.0226  1.0244
 SCF Error: norm([F,P])=      0.000000175567, max([F,P])=      0.000000090743
 orbitals (Q,E):
 ---------------
 S :1...3            ( 2.00    -6.3922)  ( 2.00    -0.5136)  ( 0.00     0.1136)
 P :1...3            ( 6.00    -4.5676)  ( 3.00    -0.2024)  ( 0.00     0.0804)
 D :1...1            ( 0.00     0.3830)

 CYCLE   12
  SDIIS (wt  1.000): -0.0000 -0.0000 -0.0005 -0.0247  1.0252
  DIIS coefficients: -0.0000 -0.0000 -0.0005 -0.0247  1.0252
 SCF Error: norm([F,P])=      0.000000002285, max([F,P])=      0.000000001028
 orbitals (Q,E):
 ---------------
 S :1...3            ( 2.00    -6.3922)  ( 2.00    -0.5136)  ( 0.00     0.1136)
 P :1...3            ( 6.00    -4.5676)  ( 3.00    -0.2024)  ( 0.00     0.0804)
 D :1...1            ( 0.00     0.3830)

 SCF CONVERGED

 CYCLE   13
1
 ***************************************************************************************************



                                                *******************
                                                *  R E S U L T S  *
                                                *******************
  
 *** Using FIT density in Focky
  SDIIS (wt  1.000):  0.0000  0.0017  0.0326  0.9657
  DIIS coefficients:  0.0000  0.0017  0.0326  0.9657
 SCF Error: norm([F,P])=      0.000000000342, max([F,P])=      0.000000000172

 Scaled ZORA Orbital Energies, per Irrep and Spin:
 =================================================
                        Occup              E (au)              E (eV)       Diff (eV) with prev. cycle
                        -----      --------------------        ------       --------------------------
 S
               1        2.000     -0.63922369009056E+01      -173.942               8.75E-09
               2        2.000     -0.51357095789531E+00       -13.975               6.90E-09
               3        0.000      0.11360419341918E+00         3.091
               4        0.000      0.13218598554508E+01        35.970
               5        0.000      0.10430275582036E+02       283.822
 P
               1        6.000     -0.45676340295409E+01      -124.292               8.74E-09
               2        3.000     -0.20235270966723E+00        -5.506               5.88E-09
               3        0.000      0.80400995303665E-01         2.188
               4        0.000      0.71612464912880E+00        19.487
               5        0.000      0.95392466931961E+01       259.576
 D
               1        0.000      0.38299165710671E+00        10.422


 Partially Occupied:
               2 P                -0.20235270966723E+00
  
 HOMO :        2 S                -0.51357095789531E+00
 LUMO :        3 P                 0.80400995303665E-01
  


 Orbital Energies, all Irreps
 ========================================

 Irrep        no.  (spin)   Occup              E (au)                E (eV)
 ---------------------------------------------------------------------------
 S             1             2.00       -0.63922369009056E+01      -173.9416
 P             1             6.00       -0.45676340295409E+01      -124.2916
 S             2             2.00       -0.51357095789531E+00       -13.9750
 P             2             3.00       -0.20235270966723E+00        -5.5063
 P             3             0.00        0.80400995303665E-01         2.1878
 S             3             0.00        0.11360419341918E+00         3.0913
 D             1             0.00        0.38299165710671E+00        10.4217
 P             4             0.00        0.71612464912880E+00        19.4867
 S             4             0.00        0.13218598554508E+01        35.9696
 P             5             0.00        0.95392466931961E+01       259.5761
 S             5             0.00        0.10430275582036E+02       283.8222


 Scaled ZORA Orbital Energies of the Core Orbitals:
 ==================================================

 (Note that the atoms are grouped by atomtype, see the labels, and may hence NOT be in input order)

 AtomType  Orbital  Atom                   E (au)                        E (eV)
 --------  -------  ----           --------------------        ----------------
 P           1S        1          -0.76588588395026E+02               -2084.082



 =======================================
 M U L L I K E N   P O P U L A T I O N S
 =======================================
  
 The survey below gives for each atom:
 a) the total charge (Z minus electrons)
 b) the net spin polarization (nr of electrons spin-A minus spin-B)
 c) for each spin the atomic electron valence density (integrated) per L-value.

 Atom              Charge    Spin density          S         P         D         F
 ----              ------    ------------       ------    ------    ------    ------
 1 P              -0.0000                       4.0000    9.0000    0.0000    0.0000

 Populations of individual BAS functions
 ----------------------------------------
 1 P           -0.0481  1.4990  0.5077  0.7973  0.7973  0.7973  1.2052  1.2052  1.2052  0.3372
                1.0986  0.6057  0.1369  0.1369  0.1369  0.4144  0.4144  0.4144  0.4462  0.4462
                0.4462  0.0000  0.0000  0.0000  0.0000  0.0000  0.0000

 Gross Charges per Atom (Z minus electrons)
 ==========================================
            -0.0000
 Net Total: -0.00000000



 =======================================================================
 Electrostatic potential at the Nuclei due to electrons and other nuclei
 =======================================================================
  
         Atom                  Potential
         ----                  ---------
     1)   P                  54.30955117
 
 
 ========================
 No memory problems found
 ========================
 
 Maximum number of active allocate calls:         389
 
 *******************************************************************************

                             A D F   E X I T
 NORMAL TERMINATION



 =================
 Timing Statistics
 =================
  
 Total Used :                     CPU=        0.60      System=        0.02     Elapsed=        0.66

 Calls  Section                     ( Mean, Percentage )
 ---------------------------------------------------------------------------------------------------
     3  ><      ................      0.00    0.67             0.00    0.00             0.00    0.73
     1  INIT    ................      0.07   12.00             0.00    0.00             0.08   11.57
     1  GEOMET  ................      0.01    2.00             0.01   40.00             0.03    4.03
     1  INPUTA  ................      0.00    0.67             0.00    0.00             0.00    0.54
     1  MAINSY  ................      0.01    2.00             0.00    0.00             0.02    2.32
     1  SYMFIT  ................      0.00    0.00             0.00    0.00             0.00    0.26
     1  CORORT  ................      0.00    0.67             0.00    0.00             0.00    0.25
     1  SYMORB  ................      0.00    0.00             0.00    0.00             0.00    0.14
     1  CLSMAT  ................      0.00    0.67             0.00    0.00             0.01    0.88
     1  ORTHON  ................      0.01    1.33             0.00    0.00             0.01    0.88
     1  GENPT   ................      0.02    2.67             0.00   20.00             0.02    2.93
     1  PTBAS   ................      0.00    0.67             0.00    0.00             0.01    0.81
    13  FOCKY   ................      0.03   62.67             0.00   20.00             0.03   60.53
    13  FOCKTR  ................      0.00    0.67             0.00    0.00             0.00    1.18
    13  SDIIS   ................      0.00    6.00             0.00   20.00             0.00    5.88
     1  COREPS  ................      0.02    4.00             0.00    0.00             0.02    3.76
     1  POPAN   ................      0.01    1.33             0.00    0.00             0.01    0.80
     1  DEBYE   ................      0.00    0.00             0.00    0.00             0.00    0.31
     1  EXIT PROCEDURE .........      0.01    2.00             0.00    0.00             0.01    2.21


 Currently Open Files (EXIT00)
 ====================

 Unit    Access Format  Status   Type       Ident (file)
 -------------------------------------------------------
   3      SEQ    FORM   TRANSP  NORMAL      LOGFILE
                                          ( logfile )

 ***************************************************************************************************
 (LOGFILE)
 <Feb18-2023> <00:43:44>  DIRAC 2019  RunTime: Feb18-2023 00:43:44  Nodes: 1  Procs: 1
 <Feb18-2023> <00:43:44>  NORMAL TERMINATION
 <Feb18-2023> <00:43:44>  END
 <Feb18-2023> <00:43:44>  ADF 2019  RunTime: Feb18-2023 00:43:44  Nodes: 1  Procs: 1
 <Feb18-2023> <00:43:44>  Hydrogen (TZP)
 <Feb18-2023> <00:43:44>  RunType   : CREATE
 <Feb18-2023> <00:43:44>  Net Charge: 0 (Nuclei minus Electrons)
 <Feb18-2023> <00:43:44>  Symmetry  : ATOM
  Coordinates
    Atom         X           Y           Z   (Angstrom)
    1.H         0.000000    0.000000    0.000000
 <Feb18-2023> <00:43:44>  >>>> CORORT
 <Feb18-2023> <00:43:44>  >>>> CLSMAT
 <Feb18-2023> <00:43:44>  >>>> ORTHON
 <Feb18-2023> <00:43:44>  >>>> GENPT
 <Feb18-2023> <00:43:44>  Block Length=  64
 <Feb18-2023> <00:43:44>  >>>> PTBAS
 <Feb18-2023> <00:43:44>  >>>> CYCLE
 <Feb18-2023> <00:43:44>              |Error|         MaxErr       Wt(A-DIIS)
 <Feb18-2023> <00:43:44>      1      0.00000000      0.00000000
 <Feb18-2023> <00:43:44>      2      0.03153787      0.03011049
 <Feb18-2023> <00:43:44>      3      0.00861799      0.00834303    100.0
 <Feb18-2023> <00:43:44>      4      0.00173235      0.00171862      0.7
 <Feb18-2023> <00:43:44>      5      0.00004367      0.00003977      0.0
 <Feb18-2023> <00:43:44>      6      0.00000238      0.00000216      0.0
 <Feb18-2023> <00:43:44>      7      0.00000001      0.00000001      0.0
 <Feb18-2023> <00:43:44>  SCF converged
 <Feb18-2023> <00:43:44>      8      0.00000000      0.00000000      0.0
 <Feb18-2023> <00:43:44>  >>>> POPAN
 <Feb18-2023> <00:43:44>  >>>> DEBYE
 <Feb18-2023> <00:43:44>  NORMAL TERMINATION
 <Feb18-2023> <00:43:44>  END
 <Feb18-2023> <00:43:44>  DIRAC 2019  RunTime: Feb18-2023 00:43:44  Nodes: 1  Procs: 1
 <Feb18-2023> <00:43:45>  NORMAL TERMINATION
 <Feb18-2023> <00:43:45>  END
 <Feb18-2023> <00:43:45>  ADF 2019  RunTime: Feb18-2023 00:43:45  Nodes: 1  Procs: 1
 <Feb18-2023> <00:43:45>  Phosphorus (TZP, 1s frozen)
 <Feb18-2023> <00:43:45>  RunType   : CREATE
 <Feb18-2023> <00:43:45>  Net Charge: 0 (Nuclei minus Electrons)
 <Feb18-2023> <00:43:45>  Symmetry  : ATOM
  Coordinates
    Atom         X           Y           Z   (Angstrom)
    1.P         0.000000    0.000000    0.000000
 <Feb18-2023> <00:43:45>  >>>> CORORT
 <Feb18-2023> <00:43:45>  >>>> CLSMAT
 <Feb18-2023> <00:43:45>  >>>> ORTHON
 <Feb18-2023> <00:43:45>  >>>> GENPT
 <Feb18-2023> <00:43:45>  Block Length=  76
 <Feb18-2023> <00:43:45>  >>>> PTBAS
 <Feb18-2023> <00:43:45>  >>>> CYCLE
 <Feb18-2023> <00:43:45>              |Error|         MaxErr       Wt(A-DIIS)
 <Feb18-2023> <00:43:45>      1      0.00000000      0.00000000
 <Feb18-2023> <00:43:45>      2     18.57419976      5.72946042    100.0
 <Feb18-2023> <00:43:45>      3      7.89224634      2.59295418    100.0
 <Feb18-2023> <00:43:45>      4      4.38717664      1.76162665    100.0
 <Feb18-2023> <00:43:45>      5      1.32434558      0.46695615    100.0
 <Feb18-2023> <00:43:45>      6      0.89465661      0.32855234    100.0
 <Feb18-2023> <00:43:45>      7      0.15275323      0.05676890     56.3
 <Feb18-2023> <00:43:45>      8      0.06211706      0.02306515     22.3
 <Feb18-2023> <00:43:45>      9      0.00895767      0.00340647      2.4
 <Feb18-2023> <00:43:45>     10      0.00016365      0.00006372      0.0
 <Feb18-2023> <00:43:45>     11      0.00000018      0.00000009      0.0
 <Feb18-2023> <00:43:45>     12      0.00000000      0.00000000      0.0
 <Feb18-2023> <00:43:45>  SCF converged
 <Feb18-2023> <00:43:45>     13      0.00000000      0.00000000      0.0
 <Feb18-2023> <00:43:45>  >>>> POPAN
 <Feb18-2023> <00:43:45>  >>>> DEBYE
 <Feb18-2023> <00:43:45>  NORMAL TERMINATION
 <Feb18-2023> <00:43:45>  END

 *******************************************************************************
 *                                                                             *
 *  -------------------------------------                                      *
 *   Amsterdam Density Functional  (ADF)         2019                          *
 *  -------------------------------------                                      *
 *                                               r74351 2019-04-25             *
 *                                                                             *
 *                                                                             *
 *                            =====================                            *
 *                            |                   |                            *
 *                            |     D I R A C     |                            *
 *                            |                   |                            *
 *                            =====================                            *
 *                                                                             *
 *                                                                             *
 *   Online information and documentation:  https://www.scm.com/support/       *
 *   E-mail:  support@scm.com   info@scm.com                                   *
 *                                                                             *
 *   Scientific publications using ADF results must be properly referenced     *
 *   See the User Manuals (or the web site) for recommended citations          *
 *   The terms and conditions of the End User License Agreement apply to       *
 *   the use of ADF, https://www.scm.com/license-terms/                        *
 *                                                                             *
 **********************  x86_64_linux_intel / intelmpi  ************************
 
 Licensed to: Dr. Carles Bo / Institute of Chemical Research of Catalonia ( (ICIQ) / Tarragona / Spain 2022-11-28 14:37:29
 SCM User ID: u7609
  
 DIRAC 2019  RunTime: Feb18-2023 00:43:46  Nodes: 1  Procs: 1

 Temporary files are created in /scratch/kid_0.1026619478

1
 MOLYBDENUM ATOM 3d CORE RELATIVISTIC, Point Nuc, A and c fro
 N J RN H ZN XION ANUC CLIGHT
 5000   15100.00000000197.36710137 42.00000000  0.00000000   97.905406  0.1370360E+03
  PH   PHI     EPS        DEL        DELRVR
  0.30  0.30     2500.00  0.00001000  0.00001000
 IDIRC  NC1  NDEBU NPRIN  IPUN IRCOR IWCOR
   1   300     0     0     0     0     9
   XALPHA      XLATTER      RNUC
  0.70000000  0.00000000  0.00000000 Point Charge
   XN   XL   XJ      XE          XZ      XDELL
  1.0  0.0  0.5   -1500.000       2.000     0.00000
  2.0  0.0  0.5    -325.000       2.000     0.00000
  2.0  1.0  0.5    -325.000       2.000     0.00000
  2.0  1.0  1.5    -325.000       4.000     0.00000
  3.0  0.0  0.5     -70.000       2.000     0.00000
  3.0  1.0  0.5     -70.000       2.000     0.00000
  3.0  1.0  1.5     -70.000       4.000     0.00000
  3.0  2.0  1.5     -60.000       4.000     0.00000
  3.0  2.0  2.5     -60.000       6.000     0.00000
  4.0  0.0  0.5     -10.000       2.000     0.00000
  4.0  1.0  0.5     -10.000       2.000     0.00000
  4.0  1.0  1.5     -10.000       4.000     0.00000
  4.0  2.0  1.5      -1.000       4.000     0.00000
  4.0  2.0  2.5      -1.000       1.000     0.00000
  5.0  0.0  0.5      -0.500       1.000     0.00000
 ICORP=  0  NPCL=  0  DEMP=0.00  PEPS=0.000000
 R(1)=  0.1000000E-08 D=  0.1005080E+01 RNUC=  0.0000000E+00
 converged at cycle   41  DENSITY AVERAGING    0.2400
  MAXIMUM ERROR IN R.V(R) IS   0.93203452E-05
 Q,EY,EV,EZ,ESUM,ETOT,RHO  0.420000E+02 -0.161898E+03 -0.662509E+04 -0.978397E+04 -0.242700E+04 -0.404691E+04  0.342495E-11


 DIRAC CALCULATION
1                    MOLYBDENUM ATOM 3d CORE RELATIVISTIC, Point Nuc, A and c from libtc


 EXCHANGE COEFFICIENT=  0.7000000           TAIL CORRECTION=  0.           NUCLEAR RADIUS=  0.000E+00
0                       ORBITAL    N    L    J     ELECTRONS     EIGENVALUE                DELTA OF EIGENV.

                          1S1/2  1.0  0.0  0.5     2.000       -0.7276812E+03                 0.2822496E-04
                          2S1/2  2.0  0.0  0.5     2.000       -0.1028194E+03                 0.1725465E-04
                          2P1/2  2.0  1.0  0.5     2.000       -0.9468016E+02                 0.1864325E-04
                          2P3/2  2.0  1.0  1.5     4.000       -0.9076266E+02                 0.1832345E-04
                          3S1/2  3.0  0.0  0.5     2.000       -0.1747094E+02                 0.5979346E-05
                          3P1/2  3.0  1.0  0.5     2.000       -0.1436574E+02                 0.6275079E-05
                          3P3/2  3.0  1.0  1.5     4.000       -0.1371946E+02                 0.5984426E-05
                          3D3/2  3.0  2.0  1.5     4.000       -0.8203697E+01                 0.6709395E-05
                          3D5/2  3.0  2.0  2.5     6.000       -0.8081013E+01                 0.6610438E-05
                          4S1/2  4.0  0.0  0.5     2.000       -0.2338238E+01                 0.2446887E-06
                          4P1/2  4.0  1.0  0.5     2.000       -0.1452045E+01                 0.2971982E-06
                          4P3/2  4.0  1.0  1.5     4.000       -0.1358936E+01                 0.3186552E-06
                          4D3/2  4.0  2.0  1.5     4.000       -0.1184046E+00                 0.3378248E-06
                          4D5/2  4.0  2.0  2.5     1.000       -0.1108976E+00                 0.3342679E-06
                          5S1/2  5.0  0.0  0.5     1.000       -0.1320069E+00                 0.9757102E-07


                                        NUCLEAR CHARGE=   42.000000
                            INTEGRAL OF CHARGE DENSITY=   42.000000
                           SUM OF THE ORBITAL ENERGIES=  -2426.9970
                                          TOTAL ENERGY=  -4046.9128
                                        KINETIC ENERGY=   4198.0886
                             NUCLEAR ATTRACTION ENERGY=  -9783.9685
                             ELECTRON REPULSION ENERGY=   1660.3903
                                       EXCHANGE ENERGY=   -121.4232

 *******************************************************************************

                             D I R A C   E X I T
 NORMAL TERMINATION



 =================
 Timing Statistics
 =================
  
 Total Used :                     CPU=        0.46      System=        0.00     Elapsed=        0.47

 Calls  Section                     ( Mean, Percentage )
 ---------------------------------------------------------------------------------------------------
     2  ><      ................      0.00    0.00             0.00    0.00             0.00    0.00
     1  EXIT PROCEDURE .........      0.46  100.00             0.00  100.00             0.47  100.00


 Currently Open Files (EXIT00)
 ====================

 Unit    Access Format  Status   Type       Ident (file)
 -------------------------------------------------------
   3      SEQ    FORM   TRANSP  NORMAL      LOGFILE
                                          ( logfile )
 
Create Mo   file=TZP-Mo.3d
XC
  GGA PBE
End
relativistic ZORA
Corepotentials t12.rel
End

 *******************************************************************************
 *                                                                             *
 *  -------------------------------------                                      *
 *   Amsterdam Density Functional  (ADF)         2019                          *
 *  -------------------------------------                                      *
 *                                               r74351 2019-04-25             *
 *                                                                             *
 *                                                                             *
 *                              =================                              *
 *                              |               |                              *
 *                              |     A D F     |                              *
 *                              |               |                              *
 *                              =================                              *
 *                                                                             *
 *                                                                             *
 *   Online information and documentation:  https://www.scm.com/support/       *
 *   E-mail:  support@scm.com   info@scm.com                                   *
 *                                                                             *
 *   Scientific publications using ADF results must be properly referenced     *
 *   See the User Manuals (or the web site) for recommended citations          *
 *   The terms and conditions of the End User License Agreement apply to       *
 *   the use of ADF, https://www.scm.com/license-terms/                        *
 *                                                                             *
 **********************  x86_64_linux_intel / intelmpi  ************************
 
 Licensed to: Dr. Carles Bo / Institute of Chemical Research of Catalonia ( (ICIQ) / Tarragona / Spain 2022-11-28 14:37:29
 SCM User ID: u7609
  
 ADF 2019  RunTime: Feb18-2023 00:43:46  Nodes: 1  Procs: 1

 Temporary files are created in /scratch/kid_0.322296371

 Molybdenum (TZP, 3d frozen)



 ===========================
 A T T A C H E D   F I L E S
 ===========================
  
 CREATE - Data File:    TZP-Mo.3d
                        Molybdenum (TZP, 3d frozen)
 Core Potentials:
         file : t12.rel



 ===============================
 M O D E L   P A R A M E T E R S
 ===============================
  
 DENSITY FUNCTIONAL POTENTIAL (scf)
    LDA:                               PW92                                    == Not Default ==
    Gradient Corrections:              PBEc PBEx                               == Not Default ==

 SPIN  (restricted / unrestr.)
    Molecule:                          Restricted                               

 OTHER ASPECTS
    Relativistic Corrections:          scalar (ZORA,MAPA)                      == Not Default ==

    Nuclear Charge Density Model:      Point Charge Nuclei                      
    Core Treatment:                    Frozen Orbital(s)                        

    Hyperfine or Zeeman Interaction:   ---                                      



 =====================================
 S Y M M E T R Y ,   E L E C T R O N S
 =====================================
  
 Symmetry: ATOM

 Irreducible Representations, including subspecies
 -------------------------------------------------
 S
 P:x  P:y  P:z
 D:z2  D:x2-y2  D:xy  D:xz  D:yz
 F:z3  F:z  F:xyz  F:z2x  F:z2y  F:x  F:y


 Configuration of Valence Electrons
 ==================================

          Occupation Numbers
          -------------------------------------------------
 S        2 1
 P        6
 D        5
 F        0
          -------------------------------------------------

 Total:   14

 Net Charge: 0 (Nuclei minus Electrons)

 Preset values for MO occupations will be applied through SCF cycle no. 1000000
 Thereafter, the program will assign electrons to MOs that are spatially
 similar to the occupied MOs in a "reference" cycle ("KeepOrbitals").
 The reference cycle is always the PREVIOUS cycle: it will evolve with
 the SCF procedure.



 ================================
 (Slater-type)  F U N C T I O N S  ***  (Basis and Fit)  ***
 ================================
  

 Atom Type    1  (Mo)
 ==============

 Valence Basis Sets:  18
 -----------------------
   1 S   30.500000
   2 S   17.750000
   3 S    8.350000
   2 P   18.600000
   3 P    8.700000
   3 D   10.050000
   4 S    5.100000
   4 S    3.300000
   5 S    2.150000
   5 S    1.350000
   5 S    0.870000
   4 P    4.950000
   4 P    3.300000
   4 P    2.300000
   4 D    3.500000
   4 D    1.850000
   4 D    0.970000
   5 P    1.350000

 Frozen Core Shells
 ------------------
    S:  3
    P:  2
    D:  1


 BAS: List of all Elementary Cartesian Basis Functions
 =====================================================

 The numbering in the list below (to the right of the function characteristics) is referred
 to in print-outs of MO eigenvectors and Mulliken populations in the BAS representation
 (as contrasted to the SFO representation).

 Notes:
 1. The functions are characterized by a polynomial prefactor (powers of x,y,z and r) and
    an exponential decay factor alpha.
 2. Since the basis sets are specific for an atom TYPE, the individual functions occur on
    all atoms of that type.
 3. The word 'Core' in the left margin signals that it is a Core Function (CF) : not a
    degree of freedom in the valence set, but only used to ensure orthogonalization of
    the other valence basis functions on the frozen Core Orbitals.


 (power of) X  Y  Z  R     Alpha  on Atom
            ==========     =====     ==========

 Mo                                   1
                                  ---------------------------------------------------------------------------
    Core    0  0  0  0    30.500      1
    Core    0  0  0  1    17.750      2
    Core    0  0  0  2     8.350      3
    Core    1  0  0  0    18.600      4
    Core    0  1  0  0    18.600      5
    Core    0  0  1  0    18.600      6
    Core    1  0  0  1     8.700      7
    Core    0  1  0  1     8.700      8
    Core    0  0  1  1     8.700      9
    Core    2  0  0  0    10.050     10
    Core    1  1  0  0    10.050     11
    Core    1  0  1  0    10.050     12
    Core    0  2  0  0    10.050     13
    Core    0  1  1  0    10.050     14
    Core    0  0  2  0    10.050     15
            0  0  0  3     5.100     16
            0  0  0  3     3.300     17
            0  0  0  4     2.150     18
            0  0  0  4     1.350     19
            0  0  0  4     0.870     20
            1  0  0  2     4.950     21
            0  1  0  2     4.950     22
            0  0  1  2     4.950     23
            1  0  0  2     3.300     24
            0  1  0  2     3.300     25
            0  0  1  2     3.300     26
            1  0  0  2     2.300     27
            0  1  0  2     2.300     28
            0  0  1  2     2.300     29
            2  0  0  1     3.500     30
            1  1  0  1     3.500     31
            1  0  1  1     3.500     32
            0  2  0  1     3.500     33
            0  1  1  1     3.500     34
            0  0  2  1     3.500     35
            2  0  0  1     1.850     36
            1  1  0  1     1.850     37
            1  0  1  1     1.850     38
            0  2  0  1     1.850     39
            0  1  1  1     1.850     40
            0  0  2  1     1.850     41
            2  0  0  1     0.970     42
            1  1  0  1     0.970     43
            1  0  1  1     0.970     44
            0  2  0  1     0.970     45
            0  1  1  1     0.970     46
            0  0  2  1     0.970     47
            1  0  0  3     1.350     48
            0  1  0  3     1.350     49
            0  0  1  3     1.350     50

 Total number of charge fitting functions (nprimf)       230
 Total number of Cartesian basis functions (naos)         50
 Total number of Cartesian core functions  (ncos)         15



 BAS: List of all Elementary Cartesian Basis Functions
 =====================================================

 The numbering in the list below (to the right of the function characteristics) is referred
 to in print-outs of MO eigenvectors and Mulliken populations in the BAS representation
 (as contrasted to the SFO representation).

 Notes:
 1. The functions are characterized by a polynomial prefactor (powers of x,y,z and r) and
    an exponential decay factor alpha.
 2. Since the basis sets are specific for an atom TYPE, the individual functions occur on
    all atoms of that type.
 3. The word 'Core' in the left margin signals that it is a Core Function (CF) : not a
    degree of freedom in the valence set, but only used to ensure orthogonalization of
    the other valence basis functions on the frozen Core Orbitals.


 (power of) X  Y  Z  R     Alpha  on Atom
            ==========     =====     ==========

 Mo                                   1
                                  ---------------------------------------------------------------------------
    Core    0  0  0  0    30.500      1
    Core    0  0  0  1    17.750      2
    Core    0  0  0  2     8.350      3
    Core    1  0  0  0    18.600      4
    Core    0  1  0  0    18.600      5
    Core    0  0  1  0    18.600      6
    Core    1  0  0  1     8.700      7
    Core    0  1  0  1     8.700      8
    Core    0  0  1  1     8.700      9
    Core    2  0  0  0    10.050     10
    Core    1  1  0  0    10.050     11
    Core    1  0  1  0    10.050     12
    Core    0  2  0  0    10.050     13
    Core    0  1  1  0    10.050     14
    Core    0  0  2  0    10.050     15
            0  0  0  3     5.100     16
            0  0  0  3     3.300     17
            0  0  0  4     2.150     18
            0  0  0  4     1.350     19
            0  0  0  4     0.870     20
            1  0  0  2     4.950     21
            0  1  0  2     4.950     22
            0  0  1  2     4.950     23
            1  0  0  2     3.300     24
            0  1  0  2     3.300     25
            0  0  1  2     3.300     26
            1  0  0  2     2.300     27
            0  1  0  2     2.300     28
            0  0  1  2     2.300     29
            2  0  0  1     3.500     30
            1  1  0  1     3.500     31
            1  0  1  1     3.500     32
            0  2  0  1     3.500     33
[...]
    Atom         X           Y           Z   (Angstrom)
    1.Mo       -0.022015    1.096901   -2.515712
    2.O         1.179277   -0.308632   -2.807505
    3.Mo        2.323422   -1.048698   -1.271079
    4.O         2.470616   -1.359100    0.586735
    5.Mo        1.512249   -1.162280    2.322550
    6.O         0.041998   -0.420046    3.344422
    7.Mo       -1.704238   -0.002195    2.534445
    8.O        -2.894516    0.440011    1.044523
    9.Mo       -2.455367    1.781968   -0.285032
   10.O        -1.112666    2.401563   -1.529924
   11.O         1.121526   -2.872276    2.466737
   12.O         2.846907   -0.995720    3.442138
   13.O         3.638474    0.086144   -1.548042
   14.O         2.965899   -2.508074   -1.993616
   15.O         1.156794    2.542810   -3.118986
   16.O        -0.992389    0.956252   -3.954736
   17.O        -2.970335    3.282866    0.452996
   18.O        -3.765469    1.413000   -1.395584
   19.O        -2.093244    1.309618    3.636757
   20.O        -2.637553   -1.355068    3.138066
   21.O        -0.645905    1.648049    1.113883
   22.O         1.716884    0.942058    1.778327
   23.O         1.129108    1.007039   -0.669415
   24.O         1.351965    3.212379    0.660125
   25.P         0.898020    1.762385    0.726250
   26.O        -1.275678   -0.149138   -1.325520
   27.O        -2.087490   -2.452270   -0.568381
   28.P        -0.914757   -1.494959   -0.489273
   29.O        -0.541732   -1.079223    0.994878
   30.O         0.397808   -2.076455   -1.102617
   31.H         0.784100    2.996512   -3.901708
 <Feb18-2023> <01:11:42>  >>>> CORORT
 <Feb18-2023> <01:11:42>  >>>> CLSMAT
 <Feb18-2023> <01:11:42>  >>>> ORTHON
 <Feb18-2023> <01:11:42>  >>>> GENPT
 <Feb18-2023> <01:11:42>  Block Length= 128
 <Feb18-2023> <01:11:42>  >>>> PTBAS
 <Feb18-2023> <01:11:47>  combining surface points...
 <Feb18-2023> <01:11:47>  combining surface points...
 <Feb18-2023> <01:11:47>  combining surface points...
 <Feb18-2023> <01:11:47>  >>>> CYCLE
 <Feb18-2023> <01:11:51>              |Error|         MaxErr       Wt(A-DIIS)
 <Feb18-2023> <01:11:51>      1      0.18452772      0.02712594
 <Feb18-2023> <01:11:56>      2      0.70106581      0.07790254    100.0
 <Feb18-2023> <01:12:00>      3      0.22275148      0.03522758    100.0
 <Feb18-2023> <01:12:04>      4      0.34196239      0.03253806    100.0
 <Feb18-2023> <01:12:08>      5      0.84905449      0.08240041    100.0
 <Feb18-2023> <01:12:12>      6      0.48495047      0.08854005    100.0
 <Feb18-2023> <01:12:16>      7      0.32174207      0.07008250    100.0
 <Feb18-2023> <01:12:20>      8      0.25846137      0.05393810    100.0
 <Feb18-2023> <01:12:24>      9      0.21518099      0.02392350     23.2
 <Feb18-2023> <01:12:28>     10      0.02741647      0.00444439      3.5
 <Feb18-2023> <01:12:32>     11      0.01217345      0.00153784      0.5
 <Feb18-2023> <01:12:35>     12      0.00595044      0.00065637      0.0
 <Feb18-2023> <01:12:39>     13      0.00513097      0.00085713      0.0
 <Feb18-2023> <01:12:43>     14      0.00106238      0.00018835      0.0
 <Feb18-2023> <01:12:47>     15      0.00053206      0.00008135      0.0
 <Feb18-2023> <01:12:51>     16      0.00027482      0.00002663      0.0
 <Feb18-2023> <01:12:55>     17      0.00011064      0.00001277      0.0
 <Feb18-2023> <01:12:59>     18      0.00005745      0.00000758      0.0
 <Feb18-2023> <01:13:03>     19      0.00009630      0.00001061      0.0
 <Feb18-2023> <01:13:06>     20      0.00004187      0.00000771      0.0
 <Feb18-2023> <01:13:10>     21      0.00004076      0.00000434      0.0
 <Feb18-2023> <01:13:14>     22      0.00000534      0.00000077      0.0
 <Feb18-2023> <01:13:15>  SCF converged
 <Feb18-2023> <01:13:18>     23      0.00000268      0.00000040      0.0
 <Feb18-2023> <01:13:19>  >>>> TOTEN
 <Feb18-2023> <01:13:24>  >>>> POPAN
 <Feb18-2023> <01:13:24>  >>>> DEBYE
 <Feb18-2023> <01:13:25>  >>>> ENGRAD
 <Feb18-2023> <01:13:45>  current energy                               -9.53597436 Hartree
 <Feb18-2023> <01:13:45>  energy change                      -0.00005628     0.00100000    T
 <Feb18-2023> <01:13:45>  constrained gradient max            0.00155025     0.00100000    F
 <Feb18-2023> <01:13:45>  constrained gradient rms            0.00035299     0.00066667    T
 <Feb18-2023> <01:13:45>  gradient max                        0.00155025
 <Feb18-2023> <01:13:45>  gradient rms                        0.00035299
 <Feb18-2023> <01:13:45>  cart. step max                      0.00206517     0.01000000    T
 <Feb18-2023> <01:13:45>  cart. step rms                      0.00073573     0.00666667    T
  Coordinates in Geometry Cycle 15
    Atom         X           Y           Z   (Angstrom)
    1.Mo       -0.023204    1.096798   -2.515903
    2.O         1.179318   -0.308381   -2.807221
    3.Mo        2.323137   -1.048295   -1.271005
    4.O         2.471156   -1.358411    0.587293
    5.Mo        1.512640   -1.162802    2.322795
    6.O         0.041829   -0.419234    3.343619
    7.Mo       -1.703905   -0.002345    2.534596
    8.O        -2.894553    0.440261    1.045490
    9.Mo       -2.455416    1.782669   -0.283344
   10.O        -1.113339    2.400550   -1.530618
   11.O         1.119807   -2.872072    2.466880
   12.O         2.846718   -0.996623    3.442909
   13.O         3.637984    0.086831   -1.547910
   14.O         2.966376   -2.507206   -1.993934
   15.O         1.156847    2.542605   -3.118672
   16.O        -0.991295    0.955777   -3.956448
   17.O        -2.969003    3.284331    0.453716
   18.O        -3.765845    1.414342   -1.393722
   19.O        -2.092705    1.309880    3.636785
   20.O        -2.637085   -1.354855    3.139050
   21.O        -0.646279    1.647643    1.113114
   22.O         1.716321    0.942722    1.778797
   23.O         1.129515    1.006877   -0.669420
   24.O         1.351123    3.212581    0.659806
   25.P         0.897961    1.762329    0.725926
   26.O        -1.275221   -0.150039   -1.326384
   27.O        -2.086802   -2.453513   -0.570446
   28.P        -0.914537   -1.495734   -0.489912
   29.O        -0.542872   -1.080150    0.994370
   30.O         0.398795   -2.076485   -1.102532
   31.H         0.784225    2.995373   -3.901976
 <Feb18-2023> <01:13:45>  >>>> CORORT
 <Feb18-2023> <01:13:45>  >>>> CLSMAT
 <Feb18-2023> <01:13:45>  >>>> ORTHON
 <Feb18-2023> <01:13:45>  >>>> GENPT
 <Feb18-2023> <01:13:46>  Block Length= 128
 <Feb18-2023> <01:13:46>  >>>> PTBAS
 <Feb18-2023> <01:13:50>  combining surface points...
 <Feb18-2023> <01:13:50>  combining surface points...
 <Feb18-2023> <01:13:50>  combining surface points...
 <Feb18-2023> <01:13:50>  >>>> CYCLE
 <Feb18-2023> <01:13:55>              |Error|         MaxErr       Wt(A-DIIS)
 <Feb18-2023> <01:13:55>      1      0.18389790      0.02681185
 <Feb18-2023> <01:13:59>      2      0.70060328      0.07808543    100.0
 <Feb18-2023> <01:14:03>      3      0.22247373      0.03526581    100.0
 <Feb18-2023> <01:14:07>      4      0.34033398      0.03211269    100.0
 <Feb18-2023> <01:14:11>      5      0.85305236      0.08268894    100.0
 <Feb18-2023> <01:14:15>      6      0.48369241      0.08828973    100.0
 <Feb18-2023> <01:14:19>      7      0.32678047      0.07179247    100.0
 <Feb18-2023> <01:14:23>      8      0.25478772      0.05315162    100.0
 <Feb18-2023> <01:14:27>      9      0.21447086      0.02343667     22.7
 <Feb18-2023> <01:14:31>     10      0.02823749      0.00463337      3.7
 <Feb18-2023> <01:14:35>     11      0.01248167      0.00163521      0.6
 <Feb18-2023> <01:14:39>     12      0.00595294      0.00065046      0.0
 <Feb18-2023> <01:14:43>     13      0.00507375      0.00084956      0.0
 <Feb18-2023> <01:14:47>     14      0.00105671      0.00018846      0.0
 <Feb18-2023> <01:14:51>     15      0.00053285      0.00008066      0.0
 <Feb18-2023> <01:14:54>     16      0.00027694      0.00002602      0.0
 <Feb18-2023> <01:14:58>     17      0.00010310      0.00001193      0.0
 <Feb18-2023> <01:15:02>     18      0.00005928      0.00000778      0.0
 <Feb18-2023> <01:15:06>     19      0.00008483      0.00000855      0.0
 <Feb18-2023> <01:15:10>     20      0.00004378      0.00000799      0.0
 <Feb18-2023> <01:15:14>     21      0.00003867      0.00000412      0.0
 <Feb18-2023> <01:15:17>     22      0.00000444      0.00000066      0.0
 <Feb18-2023> <01:15:18>  SCF converged
 <Feb18-2023> <01:15:21>     23      0.00000273      0.00000044      0.0
 <Feb18-2023> <01:15:22>  >>>> TOTEN
 <Feb18-2023> <01:15:28>  >>>> POPAN
 <Feb18-2023> <01:15:28>  >>>> DEBYE
 <Feb18-2023> <01:15:28>  >>>> ENGRAD
 <Feb18-2023> <01:15:49>  current energy                               -9.53599801 Hartree
 <Feb18-2023> <01:15:49>  energy change                      -0.00002365     0.00100000    T
 <Feb18-2023> <01:15:49>  constrained gradient max            0.00133576     0.00100000    F
 <Feb18-2023> <01:15:49>  constrained gradient rms            0.00029611     0.00066667    T
 <Feb18-2023> <01:15:49>  gradient max                        0.00133576
 <Feb18-2023> <01:15:49>  gradient rms                        0.00029611
 <Feb18-2023> <01:15:49>  cart. step max                      0.00360807     0.01000000    T
 <Feb18-2023> <01:15:49>  cart. step rms                      0.00111454     0.00666667    T
  Coordinates in Geometry Cycle 16
    Atom         X           Y           Z   (Angstrom)
    1.Mo       -0.024871    1.096931   -2.515786
    2.O         1.178953   -0.308092   -2.806791
    3.Mo        2.322801   -1.047990   -1.271060
    4.O         2.472514   -1.357374    0.588554
    5.Mo        1.513724   -1.163077    2.322740
    6.O         0.041384   -0.418730    3.342085
    7.Mo       -1.703566   -0.002438    2.534754
    8.O        -2.894387    0.441464    1.046599
    9.Mo       -2.455195    1.783919   -0.280463
   10.O        -1.113878    2.399171   -1.530600
   11.O         1.119027   -2.871606    2.467827
   12.O         2.846207   -0.995438    3.444300
   13.O         3.637489    0.086872   -1.549113
   14.O         2.966138   -2.506731   -1.994084
   15.O         1.157125    2.542616   -3.117371
   16.O        -0.989990    0.956718   -3.958488
   17.O        -2.968013    3.286233    0.455562
   18.O        -3.765670    1.415271   -1.390723
   19.O        -2.092657    1.310212    3.636582
   20.O        -2.637474   -1.354341    3.139441
   21.O        -0.646419    1.647049    1.111872
   22.O         1.714988    0.943886    1.779973
   23.O         1.130334    1.006481   -0.669627
   24.O         1.350744    3.212743    0.658425
   25.P         0.898046    1.762405    0.725215
   26.O        -1.274306   -0.151990   -1.328068
   27.O        -2.086342   -2.455511   -0.574054
   28.P        -0.914496   -1.497288   -0.491325
   29.O        -0.544963   -1.082153    0.993315
   30.O         0.400045   -2.077445   -1.102340
   31.H         0.784398    2.993657   -3.901650
 <Feb18-2023> <01:15:49>  >>>> CORORT
 <Feb18-2023> <01:15:49>  >>>> CLSMAT
 <Feb18-2023> <01:15:49>  >>>> ORTHON
 <Feb18-2023> <01:15:49>  >>>> GENPT
 <Feb18-2023> <01:15:49>  Block Length= 128
 <Feb18-2023> <01:15:49>  >>>> PTBAS
 <Feb18-2023> <01:15:54>  combining surface points...
 <Feb18-2023> <01:15:54>  combining surface points...
 <Feb18-2023> <01:15:54>  combining surface points...
 <Feb18-2023> <01:15:54>  >>>> CYCLE
 <Feb18-2023> <01:15:58>              |Error|         MaxErr       Wt(A-DIIS)
 <Feb18-2023> <01:15:58>      1      0.18400676      0.02690197
 <Feb18-2023> <01:16:03>      2      0.69964289      0.07817643    100.0
 <Feb18-2023> <01:16:07>      3      0.22215431      0.03521988    100.0
 <Feb18-2023> <01:16:11>      4      0.34129940      0.03184638    100.0
 <Feb18-2023> <01:16:15>      5      0.85085149      0.08213826    100.0
 <Feb18-2023> <01:16:19>      6      0.48465945      0.08859847    100.0
 <Feb18-2023> <01:16:23>      7      0.32429051      0.07178193    100.0
 <Feb18-2023> <01:16:27>      8      0.25688629      0.05360898    100.0
 <Feb18-2023> <01:16:31>      9      0.21246784      0.02306520     22.3
 <Feb18-2023> <01:16:35>     10      0.02810203      0.00459464      3.6
 <Feb18-2023> <01:16:38>     11      0.01242972      0.00161721      0.6
 <Feb18-2023> <01:16:42>     12      0.00592660      0.00064818      0.0
 <Feb18-2023> <01:16:46>     13      0.00506164      0.00084699      0.0
 <Feb18-2023> <01:16:50>     14      0.00105274      0.00018676      0.0
 <Feb18-2023> <01:16:54>     15      0.00053443      0.00007990      0.0
 <Feb18-2023> <01:16:58>     16      0.00027815      0.00002684      0.0
 <Feb18-2023> <01:17:02>     17      0.00010457      0.00001211      0.0
 <Feb18-2023> <01:17:05>     18      0.00005947      0.00000757      0.0
 <Feb18-2023> <01:17:09>     19      0.00008778      0.00000911      0.0
 <Feb18-2023> <01:17:13>     20      0.00004444      0.00000812      0.0
 <Feb18-2023> <01:17:17>     21      0.00003944      0.00000428      0.0
 <Feb18-2023> <01:17:21>     22      0.00000473      0.00000072      0.0
 <Feb18-2023> <01:17:22>  SCF converged
 <Feb18-2023> <01:17:25>     23      0.00000272      0.00000043      0.0
 <Feb18-2023> <01:17:26>  >>>> TOTEN
 <Feb18-2023> <01:17:31>  >>>> POPAN
 <Feb18-2023> <01:17:31>  >>>> DEBYE
 <Feb18-2023> <01:17:31>  >>>> ENGRAD
 <Feb18-2023> <01:17:52>  current energy                               -9.53603174 Hartree
 <Feb18-2023> <01:17:52>  energy change                      -0.00003372     0.00100000    T
 <Feb18-2023> <01:17:52>  constrained gradient max            0.00095018     0.00100000    T
 <Feb18-2023> <01:17:52>  constrained gradient rms            0.00025942     0.00066667    T
 <Feb18-2023> <01:17:52>  gradient max                        0.00095018
 <Feb18-2023> <01:17:52>  gradient rms                        0.00025942
 <Feb18-2023> <01:17:52>  cart. step max                      0.00236020     0.01000000    T
 <Feb18-2023> <01:17:52>  cart. step rms                      0.00088866     0.00666667    T
 <Feb18-2023> <01:17:52>  GEOMETRY CONVERGED
 <Feb18-2023> <01:17:52>  Calculating Energy Terms for Final Geometry
  Coordinates in Geometry Cycle 16
    Atom         X           Y           Z   (Angstrom)
    1.Mo       -0.024871    1.096931   -2.515786
    2.O         1.178953   -0.308092   -2.806791
    3.Mo        2.322801   -1.047990   -1.271060
    4.O         2.472514   -1.357374    0.588554
    5.Mo        1.513724   -1.163077    2.322740
    6.O         0.041384   -0.418730    3.342085
    7.Mo       -1.703566   -0.002438    2.534754
    8.O        -2.894387    0.441464    1.046599
    9.Mo       -2.455195    1.783919   -0.280463
   10.O        -1.113878    2.399171   -1.530600
   11.O         1.119027   -2.871606    2.467827
   12.O         2.846207   -0.995438    3.444300
   13.O         3.637489    0.086872   -1.549113
   14.O         2.966138   -2.506731   -1.994084
   15.O         1.157125    2.542616   -3.117371
   16.O        -0.989990    0.956718   -3.958488
   17.O        -2.968013    3.286233    0.455562
   18.O        -3.765670    1.415271   -1.390723
   19.O        -2.092657    1.310212    3.636582
   20.O        -2.637474   -1.354341    3.139441
   21.O        -0.646419    1.647049    1.111872
   22.O         1.714988    0.943886    1.779973
   23.O         1.130334    1.006481   -0.669627
   24.O         1.350744    3.212743    0.658425
   25.P         0.898046    1.762405    0.725215
   26.O        -1.274306   -0.151990   -1.328068
   27.O        -2.086342   -2.455511   -0.574054
   28.P        -0.914496   -1.497288   -0.491325
   29.O        -0.544963   -1.082153    0.993315
   30.O         0.400045   -2.077445   -1.102340
   31.H         0.784398    2.993657   -3.901650
 <Feb18-2023> <01:17:52>  >>>> CORORT
 <Feb18-2023> <01:17:52>  >>>> CLSMAT
 <Feb18-2023> <01:17:52>  >>>> ORTHON
 <Feb18-2023> <01:17:52>  >>>> GENPT
 <Feb18-2023> <01:17:52>  Block Length= 128
 <Feb18-2023> <01:17:53>  >>>> PTBAS
 <Feb18-2023> <01:17:57>  combining surface points...
 <Feb18-2023> <01:17:57>  combining surface points...
 <Feb18-2023> <01:17:57>  combining surface points...
 <Feb18-2023> <01:17:57>  >>>> CYCLE
 <Feb18-2023> <01:18:02>              |Error|         MaxErr       Wt(A-DIIS)
 <Feb18-2023> <01:18:02>      1      0.18368273      0.04077959
 <Feb18-2023> <01:18:06>      2      0.69857008      0.06957548    100.0
 <Feb18-2023> <01:18:10>      3      0.22187341      0.04569151    100.0
 <Feb18-2023> <01:18:14>      4      0.34320810      0.04026770    100.0
 <Feb18-2023> <01:18:18>      5      0.84349873      0.10315958    100.0
 <Feb18-2023> <01:18:22>      6      0.48660371      0.11447546    100.0
 <Feb18-2023> <01:18:26>      7      0.31607370      0.08901690    100.0
 <Feb18-2023> <01:18:30>      8      0.26421220      0.06371562    100.0
 <Feb18-2023> <01:18:34>      9      0.20992743      0.02257690     21.8
 <Feb18-2023> <01:18:38>     10      0.02724681      0.00462085      3.7
 <Feb18-2023> <01:18:42>     11      0.01243879      0.00172056      0.7
 <Feb18-2023> <01:18:46>     12      0.00596471      0.00083644      0.0
 <Feb18-2023> <01:18:50>     13      0.00509325      0.00108692      0.0
 <Feb18-2023> <01:18:53>     14      0.00105400      0.00021444      0.0
 <Feb18-2023> <01:18:57>     15      0.00053445      0.00007584      0.0
 <Feb18-2023> <01:19:01>     16      0.00027777      0.00003616      0.0
 <Feb18-2023> <01:19:05>     17      0.00011193      0.00001193      0.0
 <Feb18-2023> <01:19:09>     18      0.00005786      0.00000938      0.0
 <Feb18-2023> <01:19:13>     19      0.00010027      0.00001363      0.0
 <Feb18-2023> <01:19:16>     20      0.00004429      0.00001038      0.0
 <Feb18-2023> <01:19:20>     21      0.00004186      0.00000577      0.0
 <Feb18-2023> <01:19:24>     22      0.00000618      0.00000088      0.0
 <Feb18-2023> <01:19:25>  SCF converged
 <Feb18-2023> <01:19:28>     23      0.00000271      0.00000046      0.0
 <Feb18-2023> <01:19:31>  >>>> TOTEN
 <Feb18-2023> <01:19:42>  QTAIM: determining topology...
 <Feb18-2023> <01:19:50>  >>>> POPAN
 <Feb18-2023> <01:19:50>  >>>> DEBYE
 <Feb18-2023> <01:19:50>  >>>> AMETS
 <Feb18-2023> <01:19:50>  >>>> POPUL
 <Feb18-2023> <01:19:50>   Bond Energy          -9.53603174 a.u.
 <Feb18-2023> <01:19:50>   Bond Energy        -259.48862639 eV
 <Feb18-2023> <01:19:50>   Bond Energy       -5983.95       kcal/mol
 <Feb18-2023> <01:19:50>  >>>> ENHESS
 <Feb18-2023> <01:20:01>  === NUCLEUS:     1
 <Feb18-2023> <01:24:30>  === NUCLEUS:     2
 <Feb18-2023> <01:28:26>  === NUCLEUS:     3
 <Feb18-2023> <01:32:22>  === NUCLEUS:     4
 <Feb18-2023> <01:36:23>  === NUCLEUS:     5
 <Feb18-2023> <01:40:24>  === NUCLEUS:     6
 <Feb18-2023> <01:44:10>  === NUCLEUS:     7
 <Feb18-2023> <01:47:57>  === NUCLEUS:     8
 <Feb18-2023> <01:51:44>  === NUCLEUS:     9
 <Feb18-2023> <01:55:30>  === NUCLEUS:    10
 <Feb18-2023> <01:59:17>  === NUCLEUS:    11
 <Feb18-2023> <02:02:54>  === NUCLEUS:    12
 <Feb18-2023> <02:06:36>  === NUCLEUS:    13
 <Feb18-2023> <02:10:18>  === NUCLEUS:    14
 <Feb18-2023> <02:14:04>  === NUCLEUS:    15
 <Feb18-2023> <02:17:49>  === NUCLEUS:    16
 <Feb18-2023> <02:21:31>  === NUCLEUS:    17
 <Feb18-2023> <02:25:08>  === NUCLEUS:    18
 <Feb18-2023> <02:28:49>  === NUCLEUS:    19
 <Feb18-2023> <02:32:31>  === NUCLEUS:    20
 <Feb18-2023> <02:36:17>  === NUCLEUS:    21
 <Feb18-2023> <02:40:07>  === NUCLEUS:    22
 <Feb18-2023> <02:43:53>  === NUCLEUS:    23
 <Feb18-2023> <02:47:39>  === NUCLEUS:    24
 <Feb18-2023> <02:51:17>  === NUCLEUS:    25
 <Feb18-2023> <02:55:03>  === NUCLEUS:    26
 <Feb18-2023> <02:58:46>  === NUCLEUS:    27
 <Feb18-2023> <03:02:37>  === NUCLEUS:    28
 <Feb18-2023> <03:06:27>  === NUCLEUS:    29
 <Feb18-2023> <03:10:23>  === NUCLEUS:    30
 <Feb18-2023> <03:14:19>  === NUCLEUS:    31
 <Feb18-2023> <03:18:03>  >>>> CALC_HESS_PMAT
 <Feb18-2023> <03:19:01>  >>>> CALC_HESS_WMAT
 <Feb18-2023> <03:19:08>  NORMAL TERMINATION
 <Feb18-2023> <03:19:08>  END
