
 *******************************************************************************
 *                                                                             *
 *  -------------------------------------                                      *
 *   Amsterdam Density Functional  (ADF)         2019                          *
 *  -------------------------------------                                      *
 *                                               r74351 2019-04-25             *
 *                                                                             *
 *                                                                             *
 *                            =====================                            *
 *                            |                   |                            *
 *                            |     D I R A C     |                            *
 *                            |                   |                            *
 *                            =====================                            *
 *                                                                             *
 *                                                                             *
 *   Online information and documentation:  https://www.scm.com/support/       *
 *   E-mail:  support@scm.com   info@scm.com                                   *
 *                                                                             *
 *   Scientific publications using ADF results must be properly referenced     *
 *   See the User Manuals (or the web site) for recommended citations          *
 *   The terms and conditions of the End User License Agreement apply to       *
 *   the use of ADF, https://www.scm.com/license-terms/                        *
 *                                                                             *
 **********************  x86_64_linux_intel / intelmpi  ************************
 
 Licensed to: Dr. Carles Bo / Institute of Chemical Research of Catalonia ( (ICIQ) / Tarragona / Spain 2022-11-28 14:37:29
 SCM User ID: u7609
  
 DIRAC 2019  RunTime: Feb18-2023 03:19:11  Nodes: 1  Procs: 1

 Temporary files are created in /scratch/kid_0.1157937037

1
 HYDROGEN ATOM RELATIVISTIC, Point Nuc, A and c from libtc   
 N J RN H ZN XION ANUC CLIGHT
 5000    1100.00000000197.36710137  1.00000000  0.00000000    1.007825  0.1370360E+03
  PH   PHI     EPS        DEL        DELRVR
  0.30  0.30     2500.00  0.00001000  0.00001000
 IDIRC  NC1  NDEBU NPRIN  IPUN IRCOR IWCOR
   1   300     0     0     0     0     0
   XALPHA      XLATTER      RNUC
  0.70000000  0.00000000  0.00000000 Point Charge
   XN   XL   XJ      XE          XZ      XDELL
  1.0  0.0  0.5      -1.000       1.000     0.00000
 ICORP=  0  NPCL=  0  DEMP=0.00  PEPS=0.000000
 R(1)=  0.1000000E-08 D=  0.1005080E+01 RNUC=  0.0000000E+00
 converged at cycle   32  DENSITY AVERAGING    0.2400
  MAXIMUM ERROR IN R.V(R) IS   0.79874357E-05
 Q,EY,EV,EZ,ESUM,ETOT,RHO  0.100000E+01 -0.266614E+00 -0.619969E+00 -0.910779E+00 -0.203940E+00 -0.415998E+00  0.337036E-17


 DIRAC CALCULATION
1                    HYDROGEN ATOM RELATIVISTIC, Point Nuc, A and c from libtc


 EXCHANGE COEFFICIENT=  0.7000000           TAIL CORRECTION=  0.           NUCLEAR RADIUS=  0.000E+00
0                       ORBITAL    N    L    J     ELECTRONS     EIGENVALUE                DELTA OF EIGENV.

                          1S1/2  1.0  0.0  0.5     1.000       -0.2039397E+00                 0.2720093E-06


                                        NUCLEAR CHARGE=    1.000000
                            INTEGRAL OF CHARGE DENSITY=    1.000000
                           SUM OF THE ORBITAL ENERGIES=     -0.2039
                                          TOTAL ENERGY=     -0.4160
                                        KINETIC ENERGY=      0.4160
                             NUCLEAR ATTRACTION ENERGY=     -0.9108
                             ELECTRON REPULSION ENERGY=      0.2787
                                       EXCHANGE ENERGY=     -0.2000

 *******************************************************************************

                             D I R A C   E X I T
 NORMAL TERMINATION



 =================
 Timing Statistics
 =================
  
 Total Used :                     CPU=        0.07      System=        0.00     Elapsed=        0.08

 Calls  Section                     ( Mean, Percentage )
 ---------------------------------------------------------------------------------------------------
     2  ><      ................      0.00    0.00             0.00    0.00             0.00    0.01
     1  EXIT PROCEDURE .........      0.07  100.00             0.00  100.00             0.08   99.99


 Currently Open Files (EXIT00)
 ====================

 Unit    Access Format  Status   Type       Ident (file)
 -------------------------------------------------------
   3      SEQ    FORM   TRANSP  NORMAL      LOGFILE
                                          ( logfile )
 
Create H   file=TZP-H
XC
  GGA PBE
End
relativistic ZORA
Corepotentials t12.rel
End

 *******************************************************************************
 *                                                                             *
 *  -------------------------------------                                      *
 *   Amsterdam Density Functional  (ADF)         2019                          *
 *  -------------------------------------                                      *
 *                                               r74351 2019-04-25             *
 *                                                                             *
 *                                                                             *
 *                              =================                              *
 *                              |               |                              *
 *                              |     A D F     |                              *
 *                              |               |                              *
 *                              =================                              *
 *                                                                             *
 *                                                                             *
 *   Online information and documentation:  https://www.scm.com/support/       *
 *   E-mail:  support@scm.com   info@scm.com                                   *
 *                                                                             *
 *   Scientific publications using ADF results must be properly referenced     *
 *   See the User Manuals (or the web site) for recommended citations          *
 *   The terms and conditions of the End User License Agreement apply to       *
 *   the use of ADF, https://www.scm.com/license-terms/                        *
 *                                                                             *
 **********************  x86_64_linux_intel / intelmpi  ************************
 
 Licensed to: Dr. Carles Bo / Institute of Chemical Research of Catalonia ( (ICIQ) / Tarragona / Spain 2022-11-28 14:37:29
 SCM User ID: u7609
  
 ADF 2019  RunTime: Feb18-2023 03:19:11  Nodes: 1  Procs: 1

 Temporary files are created in /scratch/kid_0.904211350

 Hydrogen (TZP)



 ===========================
 A T T A C H E D   F I L E S
 ===========================
  
 CREATE - Data File:    TZP-H
                        Hydrogen (TZP)
 Core Potentials:
         file : t12.rel



 ===============================
 M O D E L   P A R A M E T E R S
 ===============================
  
 DENSITY FUNCTIONAL POTENTIAL (scf)
    LDA:                               PW92                                    == Not Default ==
    Gradient Corrections:              PBEc PBEx                               == Not Default ==

 SPIN  (restricted / unrestr.)
    Molecule:                          Restricted                               

 OTHER ASPECTS
    Relativistic Corrections:          scalar (ZORA,MAPA)                      == Not Default ==

    Nuclear Charge Density Model:      Point Charge Nuclei                      
    Core Treatment:                    Frozen Orbital(s)                        

    Hyperfine or Zeeman Interaction:   ---                                      



 =====================================
 S Y M M E T R Y ,   E L E C T R O N S
 =====================================
  
 Symmetry: ATOM

 Irreducible Representations, including subspecies
 -------------------------------------------------
 S
 P:x  P:y  P:z
 D:z2  D:x2-y2  D:xy  D:xz  D:yz
 F:z3  F:z  F:xyz  F:z2x  F:z2y  F:x  F:y


 Configuration of Valence Electrons
 ==================================

          Occupation Numbers
          -------------------------------------------------
 S        1
 P        0
 D        0
 F        0
          -------------------------------------------------

 Total:   1

 Net Charge: 0 (Nuclei minus Electrons)

 Preset values for MO occupations will be applied through SCF cycle no. 1000000
 Thereafter, the program will assign electrons to MOs that are spatially
 similar to the occupied MOs in a "reference" cycle ("KeepOrbitals").
 The reference cycle is always the PREVIOUS cycle: it will evolve with
 the SCF procedure.



 ================================
 (Slater-type)  F U N C T I O N S  ***  (Basis and Fit)  ***
 ================================
  

 Atom Type    1  (H)
 ==============

 Valence Basis Sets:   4
 -----------------------
   1 S    0.690000
   1 S    0.920000
   1 S    1.580000
   2 P    1.250000


 BAS: List of all Elementary Cartesian Basis Functions
 =====================================================

 The numbering in the list below (to the right of the function characteristics) is referred
 to in print-outs of MO eigenvectors and Mulliken populations in the BAS representation
 (as contrasted to the SFO representation).

 Notes:
 1. The functions are characterized by a polynomial prefactor (powers of x,y,z and r) and
    an exponential decay factor alpha.
 2. Since the basis sets are specific for an atom TYPE, the individual functions occur on
    all atoms of that type.
 3. The word 'Core' in the left margin signals that it is a Core Function (CF) : not a
    degree of freedom in the valence set, but only used to ensure orthogonalization of
    the other valence basis functions on the frozen Core Orbitals.


 (power of) X  Y  Z  R     Alpha  on Atom
            ==========     =====     ==========

 H                                    1
                                  ---------------------------------------------------------------------------
            0  0  0  0     0.690      1
            0  0  0  0     0.920      2
            0  0  0  0     1.580      3
            1  0  0  0     1.250      4
            0  1  0  0     1.250      5
            0  0  1  0     1.250      6

 Total number of charge fitting functions (nprimf)        50
 Total number of Cartesian basis functions (naos)          6
 Total number of Cartesian core functions  (ncos)          0



 BAS: List of all Elementary Cartesian Basis Functions
 =====================================================

 The numbering in the list below (to the right of the function characteristics) is referred
 to in print-outs of MO eigenvectors and Mulliken populations in the BAS representation
 (as contrasted to the SFO representation).

 Notes:
 1. The functions are characterized by a polynomial prefactor (powers of x,y,z and r) and
    an exponential decay factor alpha.
 2. Since the basis sets are specific for an atom TYPE, the individual functions occur on
    all atoms of that type.
 3. The word 'Core' in the left margin signals that it is a Core Function (CF) : not a
    degree of freedom in the valence set, but only used to ensure orthogonalization of
    the other valence basis functions on the frozen Core Orbitals.


 (power of) X  Y  Z  R     Alpha  on Atom
            ==========     =====     ==========

 H                                    1
                                  ---------------------------------------------------------------------------
            0  0  0  0     0.690      1
            0  0  0  0     0.920      2
            0  0  0  0     1.580      3
            1  0  0  0     1.250      4
            0  1  0  0     1.250      5
            0  0  1  0     1.250      6
1
 ***************************************************************************************************



                                              ***********************
                                              *  T E C H N I C A L  *
                                              ***********************
  



 =============================================================
 P A R A L L E L I Z A T I O N  and  V E C T O R I Z A T I O N
 =============================================================
  
 Nr of parallel processes:                                1
 Maximum vector length in NumInt loops:                 128



 =====================
 S C F   U P D A T E S
 =====================
  
 Max. nr. of cycles:                               300
 Convergence criterion:                              0.0000000100
   secondary criterion:                              0.0000000100

 Mix parameter (when DIIS does not apply):           0.2000000000
 Special mix parameter for the first cycle:          1.0000000000
 Mixed ADIIS+SDIIS will be used                  
    Max number of expansion vectors:                10
    Pure ADIIS when Max([F,P]) is above              0.1000000000
    Pure SDIIS when Max([F,P]) is below              0.0010000000
 Automatic ElectronSmearing (in case of problematic SCF convergence) disabled



 =================
 P R E C I S I O N  ***  (General: NumInt, NeglectFunctionTails, ...)  ***
 =================
  

 NumInt:           Target precision:                12.0000000000
 -------           Initial precision:               10.0000000000
                   Min. precision (optimization):   10.0000000000

 Neglect Functions:          Basis functions:        0.1000000000E-13
 ------------------          Fit functions:          0.1000000000E-13



 ===========================
 L I N E A R   S C A L I N G
 ===========================
  

 Cut-off radii density fit:                        0.1000000000E-97
 Overlap cut-off criterion AO matrix elements:     0.1000000000E-97
 Cut-offs for Coulomb potential and fitted density:0.1000000000E-97
 Cut-off criterion for Coulomb multipole terms:    0.1000000000E-97
 Progressive Convergence parameter:                 0.000000000    
1
 ***************************************************************************************************



                                            ***************************
                                            *  C O M P U T A T I O N  *
                                            ***************************
  

 Number of elements of the density matrix on this node (used, total):        21        21



 ===========================================
 Numerical Integration : Fuzzy Cells (Becke)
 ===========================================
  
 Becke grid quality: VERYGOOD       
  
 Lebedev angular grid order:             min:  13 max:  41
 Nr. of radial points:                   min:  64 max:  64

 Total nr. of points:         64
 Nr. of blocks:                1
 Block length:                64
 Nr. of dummy points:          0


 Test of Precision of the Numerical Integration Grid
 ===================================================

 Integral of the Total Core Density:                   0.00000000000000



 ========================
 Density Fitting (zlmFit)
 ========================
  
 ZlmFit Fit Quality: VERYGOOD       
  
 Max L-expansion:                        min:   0 max:   0
 Nr. of radial interpolation points:     min: 120 max: 120



 =====
 S C F  ***  ScaSCF  ***
 =====
  

 CYCLE    1
 SCF Error: norm([F,P])=      0.000000000000, max([F,P])=      0.000000000000
 orbitals (Q,E):
 ---------------
 S :1...3            ( 1.00    -0.5000)  ( 0.00    -0.0900)  ( 0.00     1.2936)
 P :1...1            ( 0.00     0.1562)

 CYCLE    2
 SCF Error: norm([F,P])=      0.031537872292, max([F,P])=      0.030110494752
 orbitals (Q,E):
 ---------------
 S :1...2            ( 1.00    -0.2218)  ( 0.00     0.1019)
 P :1...1            ( 0.00     0.4189)

 CYCLE    3
  SDIIS (wt  0.000):  0.1996  0.8004
 A-DIIS (wt  1.000):  0.0000  1.0000
  DIIS coefficients:  0.0000  1.0000
 SCF Error: norm([F,P])=      0.008617989401, max([F,P])=      0.008343029399
 orbitals (Q,E):
 ---------------
 S :1...2            ( 1.00    -0.2422)  ( 0.00     0.0889)
 P :1...1            ( 0.00     0.4024)

 CYCLE    4
  SDIIS (wt  0.993):  0.1666  0.8334
 A-DIIS (wt  0.007):  0.0000  1.0000
  DIIS coefficients:  0.1654  0.8346
 SCF Error: norm([F,P])=      0.001732350026, max([F,P])=      0.001718616814
 orbitals (Q,E):
 ---------------
 S :1...2            ( 1.00    -0.2385)  ( 0.00     0.0908)
 P :1...1            ( 0.00     0.4054)

 CYCLE    5
  SDIIS (wt  1.000):  0.0236  0.9764
  DIIS coefficients:  0.0236  0.9764
 SCF Error: norm([F,P])=      0.000043673449, max([F,P])=      0.000039769875
 orbitals (Q,E):
 ---------------
 S :1...2            ( 1.00    -0.2386)  ( 0.00     0.0908)
 P :1...1            ( 0.00     0.4054)

 CYCLE    6
  SDIIS (wt  1.000): -0.0577  1.0577
  DIIS coefficients: -0.0577  1.0577
 SCF Error: norm([F,P])=      0.000002383805, max([F,P])=      0.000002158128
 orbitals (Q,E):
 ---------------
 S :1...2            ( 1.00    -0.2386)  ( 0.00     0.0908)
 P :1...1            ( 0.00     0.4054)

 CYCLE    7
  SDIIS (wt  1.000): -0.0032  1.0032
  DIIS coefficients: -0.0032  1.0032
 SCF Error: norm([F,P])=      0.000000007721, max([F,P])=      0.000000007228
 orbitals (Q,E):
 ---------------
 S :1...2            ( 1.00    -0.2386)  ( 0.00     0.0908)
 P :1...1            ( 0.00     0.4054)

 SCF CONVERGED

 CYCLE    8
1
 ***************************************************************************************************



                                                *******************
                                                *  R E S U L T S  *
                                                *******************
  
 *** Using FIT density in Focky
  SDIIS (wt  1.000):  0.0192  0.9808
  DIIS coefficients:  0.0192  0.9808
 SCF Error: norm([F,P])=      0.000000000151, max([F,P])=      0.000000000141

 Scaled ZORA Orbital Energies, per Irrep and Spin:
 =================================================
                        Occup              E (au)              E (eV)       Diff (eV) with prev. cycle
                        -----      --------------------        ------       --------------------------
 S
               1        1.000     -0.23861775226993E+00        -6.493               7.43E-09
               2        0.000      0.90791701709251E-01         2.471
               3        0.000      0.15217530108908E+01        41.409
 P
               1        0.000      0.40537978060393E+00        11.031


 Partially Occupied:
               1 S                -0.23861775226993E+00
  
 LUMO :        2 S                 0.90791701709251E-01
  


 Orbital Energies, all Irreps
 ========================================

 Irrep        no.  (spin)   Occup              E (au)                E (eV)
 ---------------------------------------------------------------------------
 S             1             1.00       -0.23861775226993E+00        -6.4931
 S             2             0.00        0.90791701709251E-01         2.4706
 P             1             0.00        0.40537978060393E+00        11.0309
 S             3             0.00        0.15217530108908E+01        41.4090


 All Electron Calculation, thus no Orbital Energies of the Core Orbitals are calculated



 =======================================
 M U L L I K E N   P O P U L A T I O N S
 =======================================
  
 The survey below gives for each atom:
 a) the total charge (Z minus electrons)
 b) the net spin polarization (nr of electrons spin-A minus spin-B)
 c) for each spin the atomic electron valence density (integrated) per L-value.

 Atom              Charge    Spin density          S         P         D         F
 ----              ------    ------------       ------    ------    ------    ------
 1 H              -0.0000                       1.0000    0.0000    0.0000    0.0000

 Populations of individual BAS functions
 ----------------------------------------
 1 H            0.2104  0.6788  0.1107  0.0000  0.0000  0.0000

 Gross Charges per Atom (Z minus electrons)
 ==========================================
            -0.0000
 Net Total: -0.00000000



 =======================================================================
 Electrostatic potential at the Nuclei due to electrons and other nuclei
 =======================================================================
  
         Atom                  Potential
         ----                  ---------
     1)   H                   0.94468022
 
 
 ========================
 No memory problems found
 ========================
 
 Maximum number of active allocate calls:         306
 
 *******************************************************************************

                             A D F   E X I T
 NORMAL TERMINATION



 =================
 Timing Statistics
 =================
  
 Total Used :                     CPU=        0.35      System=        0.02     Elapsed=        0.41

 Calls  Section                     ( Mean, Percentage )
 ---------------------------------------------------------------------------------------------------
     3  ><      ................      0.00    1.15             0.00    0.00             0.00    1.16
     1  INIT    ................      0.07   20.69             0.00    0.00             0.08   20.20
     1  GEOMET  ................      0.01    3.45             0.01   40.00             0.03    6.31
     1  INPUTA  ................      0.00    1.15             0.00    0.00             0.00    0.86
     1  MAINSY  ................      0.01    2.30             0.00    0.00             0.01    3.35
     1  SYMFIT  ................      0.00    1.15             0.00    0.00             0.00    0.39
     1  CORORT  ................      0.00    0.00             0.00    0.00             0.00    0.34
     1  SYMORB  ................      0.00    0.00             0.00    0.00             0.00    0.18
     1  CLSMAT  ................      0.00    1.15             0.00    0.00             0.01    1.30
     1  ORTHON  ................      0.00    1.15             0.00    0.00             0.00    1.22
     1  GENPT   ................      0.01    3.45             0.00    0.00             0.01    3.19
     1  PTBAS   ................      0.00    1.15             0.00    0.00             0.00    1.18
     8  FOCKY   ................      0.02   50.57             0.00   40.00             0.02   45.19
     8  FOCKTR  ................      0.00    0.00             0.00    0.00             0.00    0.97
     8  SDIIS   ................      0.00    4.60             0.00    0.00             0.00    5.61
     1  COREPS  ................      0.01    3.45             0.00   20.00             0.01    3.66
     1  POPAN   ................      0.00    1.15             0.00    0.00             0.00    1.17
     1  DEBYE   ................      0.00    0.00             0.00    0.00             0.00    0.47
     1  EXIT PROCEDURE .........      0.01    3.45             0.00    0.00             0.01    3.25


 Currently Open Files (EXIT00)
 ====================

 Unit    Access Format  Status   Type       Ident (file)
 -------------------------------------------------------
   3      SEQ    FORM   TRANSP  NORMAL      LOGFILE
                                          ( logfile )

 ***************************************************************************************************
 (LOGFILE)
 <Feb18-2023> <03:19:11>  DIRAC 2019  RunTime: Feb18-2023 03:19:11  Nodes: 1  Procs: 1
 <Feb18-2023> <03:19:11>  NORMAL TERMINATION
 <Feb18-2023> <03:19:11>  END
 <Feb18-2023> <03:19:11>  ADF 2019  RunTime: Feb18-2023 03:19:11  Nodes: 1  Procs: 1
 <Feb18-2023> <03:19:11>  Hydrogen (TZP)
 <Feb18-2023> <03:19:11>  RunType   : CREATE
 <Feb18-2023> <03:19:11>  Net Charge: 0 (Nuclei minus Electrons)
 <Feb18-2023> <03:19:11>  Symmetry  : ATOM
  Coordinates
    Atom         X           Y           Z   (Angstrom)
    1.H         0.000000    0.000000    0.000000
 <Feb18-2023> <03:19:11>  >>>> CORORT
 <Feb18-2023> <03:19:11>  >>>> CLSMAT
 <Feb18-2023> <03:19:11>  >>>> ORTHON
 <Feb18-2023> <03:19:11>  >>>> GENPT
 <Feb18-2023> <03:19:11>  Block Length=  64
 <Feb18-2023> <03:19:11>  >>>> PTBAS
 <Feb18-2023> <03:19:11>  >>>> CYCLE
 <Feb18-2023> <03:19:11>              |Error|         MaxErr       Wt(A-DIIS)
 <Feb18-2023> <03:19:11>      1      0.00000000      0.00000000
 <Feb18-2023> <03:19:11>      2      0.03153787      0.03011049
 <Feb18-2023> <03:19:11>      3      0.00861799      0.00834303    100.0
 <Feb18-2023> <03:19:11>      4      0.00173235      0.00171862      0.7
 <Feb18-2023> <03:19:11>      5      0.00004367      0.00003977      0.0
 <Feb18-2023> <03:19:11>      6      0.00000238      0.00000216      0.0
 <Feb18-2023> <03:19:11>      7      0.00000001      0.00000001      0.0
 <Feb18-2023> <03:19:11>  SCF converged
 <Feb18-2023> <03:19:11>      8      0.00000000      0.00000000      0.0
 <Feb18-2023> <03:19:11>  >>>> POPAN
 <Feb18-2023> <03:19:11>  >>>> DEBYE
 <Feb18-2023> <03:19:11>  NORMAL TERMINATION
 <Feb18-2023> <03:19:11>  END

 *******************************************************************************
 *                                                                             *
 *  -------------------------------------                                      *
 *   Amsterdam Density Functional  (ADF)         2019                          *
 *  -------------------------------------                                      *
 *                                               r74351 2019-04-25             *
 *                                                                             *
 *                                                                             *
 *                            =====================                            *
 *                            |                   |                            *
 *                            |     D I R A C     |                            *
 *                            |                   |                            *
 *                            =====================                            *
 *                                                                             *
 *                                                                             *
 *   Online information and documentation:  https://www.scm.com/support/       *
 *   E-mail:  support@scm.com   info@scm.com                                   *
 *                                                                             *
 *   Scientific publications using ADF results must be properly referenced     *
 *   See the User Manuals (or the web site) for recommended citations          *
 *   The terms and conditions of the End User License Agreement apply to       *
 *   the use of ADF, https://www.scm.com/license-terms/                        *
 *                                                                             *
 **********************  x86_64_linux_intel / intelmpi  ************************
 
 Licensed to: Dr. Carles Bo / Institute of Chemical Research of Catalonia ( (ICIQ) / Tarragona / Spain 2022-11-28 14:37:29
 SCM User ID: u7609
  
 DIRAC 2019  RunTime: Feb18-2023 03:19:11  Nodes: 1  Procs: 1

 Temporary files are created in /scratch/kid_0.992383462

1
 PHOSPHORUS ATOM 1s CORE RELATIVISTIC, Point Nuc, A and c fro
 N J RN H ZN XION ANUC CLIGHT
 5000    7100.00000000197.36710137 15.00000000  0.00000000   30.973761  0.1370360E+03
  PH   PHI     EPS        DEL        DELRVR
  0.30  0.30     2500.00  0.00001000  0.00001000
 IDIRC  NC1  NDEBU NPRIN  IPUN IRCOR IWCOR
   1   300     0     0     0     0     1
   XALPHA      XLATTER      RNUC
  0.70000000  0.00000000  0.00000000 Point Charge
   XN   XL   XJ      XE          XZ      XDELL
  1.0  0.0  0.5    -600.000       2.000     0.00000
  2.0  0.0  0.5     -75.000       2.000     0.00000
  2.0  1.0  0.5     -70.000       2.000     0.00000
  2.0  1.0  1.5     -70.000       4.000     0.00000
  3.0  0.0  0.5     -25.000       2.000     0.00000
  3.0  1.0  0.5      -0.250       2.000     0.00000
  3.0  1.0  1.5      -0.250       1.000     0.00000
 ICORP=  0  NPCL=  0  DEMP=0.00  PEPS=0.000000
 R(1)=  0.1000000E-08 D=  0.1005080E+01 RNUC=  0.0000000E+00
 converged at cycle   47  DENSITY AVERAGING    0.3000
  MAXIMUM ERROR IN R.V(R) IS   0.93255186E-05
 Q,EY,EV,EZ,ESUM,ETOT,RHO  0.150000E+02 -0.290161E+02 -0.536820E+03 -0.814855E+03 -0.194417E+03 -0.340688E+03  0.340722E-13


 DIRAC CALCULATION
1                    PHOSPHORUS ATOM 1s CORE RELATIVISTIC, Point Nuc, A and c from libtc


 EXCHANGE COEFFICIENT=  0.7000000           TAIL CORRECTION=  0.           NUCLEAR RADIUS=  0.000E+00
0                       ORBITAL    N    L    J     ELECTRONS     EIGENVALUE                DELTA OF EIGENV.

                          1S1/2  1.0  0.0  0.5     2.000       -0.7640874E+02                 0.2597240E-06
                          2S1/2  2.0  0.0  0.5     2.000       -0.6353640E+01                 0.3482713E-07
                          2P1/2  2.0  1.0  0.5     2.000       -0.4588256E+01                 0.3010938E-07
                          2P3/2  2.0  1.0  1.5     4.000       -0.4554413E+01                 0.2993762E-07
                          3S1/2  3.0  0.0  0.5     2.000       -0.4844206E+00                 0.1693624E-07
                          3P1/2  3.0  1.0  0.5     2.000       -0.1770291E+00                 0.1234259E-07
                          3P3/2  3.0  1.0  1.5     1.000       -0.1750217E+00                 0.1224459E-07


                                        NUCLEAR CHARGE=   15.000000
                            INTEGRAL OF CHARGE DENSITY=   15.000000
                           SUM OF THE ORBITAL ENERGIES=   -194.4169
                                          TOTAL ENERGY=   -340.6884
                                        KINETIC ENERGY=    342.4034
                             NUCLEAR ATTRACTION ENERGY=   -814.8554
                             ELECTRON REPULSION ENERGY=    153.5256
                                       EXCHANGE ENERGY=    -21.7621

 *******************************************************************************

                             D I R A C   E X I T
 NORMAL TERMINATION



 =================
 Timing Statistics
 =================
  
 Total Used :                     CPU=        0.27      System=        0.01     Elapsed=        0.30

 Calls  Section                     ( Mean, Percentage )
 ---------------------------------------------------------------------------------------------------
     2  ><      ................      0.00    0.00             0.00    0.00             0.00    0.00
     1  EXIT PROCEDURE .........      0.27  100.00             0.01  100.00             0.30  100.00


 Currently Open Files (EXIT00)
 ====================

 Unit    Access Format  Status   Type       Ident (file)
 -------------------------------------------------------
   3      SEQ    FORM   TRANSP  NORMAL      LOGFILE
                                          ( logfile )
 
Create P   file=TZP-P.1s
XC
  GGA PBE
End
relativistic ZORA
Corepotentials t12.rel
End

 *******************************************************************************
 *                                                                             *
 *  -------------------------------------                                      *
 *   Amsterdam Density Functional  (ADF)         2019                          *
 *  -------------------------------------                                      *
 *                                               r74351 2019-04-25             *
 *                                                                             *
 *                                                                             *
 *                              =================                              *
 *                              |               |                              *
 *                              |     A D F     |                              *
 *                              |               |                              *
 *                              =================                              *
 *                                                                             *
 *                                                                             *
 *   Online information and documentation:  https://www.scm.com/support/       *
 *   E-mail:  support@scm.com   info@scm.com                                   *
 *                                                                             *
 *   Scientific publications using ADF results must be properly referenced     *
 *   See the User Manuals (or the web site) for recommended citations          *
 *   The terms and conditions of the End User License Agreement apply to       *
 *   the use of ADF, https://www.scm.com/license-terms/                        *
 *                                                                             *
 **********************  x86_64_linux_intel / intelmpi  ************************
 
 Licensed to: Dr. Carles Bo / Institute of Chemical Research of Catalonia ( (ICIQ) / Tarragona / Spain 2022-11-28 14:37:29
 SCM User ID: u7609
  
 ADF 2019  RunTime: Feb18-2023 03:19:12  Nodes: 1  Procs: 1

 Temporary files are created in /scratch/kid_0.190173333

 Phosphorus (TZP, 1s frozen)



 ===========================
 A T T A C H E D   F I L E S
 ===========================
  
 CREATE - Data File:    TZP-P.1s
                        Phosphorus (TZP, 1s frozen)
 Core Potentials:
         file : t12.rel



 ===============================
 M O D E L   P A R A M E T E R S
 ===============================
  
 DENSITY FUNCTIONAL POTENTIAL (scf)
    LDA:                               PW92                                    == Not Default ==
    Gradient Corrections:              PBEc PBEx                               == Not Default ==

 SPIN  (restricted / unrestr.)
    Molecule:                          Restricted                               

 OTHER ASPECTS
    Relativistic Corrections:          scalar (ZORA,MAPA)                      == Not Default ==

    Nuclear Charge Density Model:      Point Charge Nuclei                      
    Core Treatment:                    Frozen Orbital(s)                        

    Hyperfine or Zeeman Interaction:   ---                                      



 =====================================
 S Y M M E T R Y ,   E L E C T R O N S
 =====================================
  
 Symmetry: ATOM

 Irreducible Representations, including subspecies
 -------------------------------------------------
 S
 P:x  P:y  P:z
 D:z2  D:x2-y2  D:xy  D:xz  D:yz
 F:z3  F:z  F:xyz  F:z2x  F:z2y  F:x  F:y


 Configuration of Valence Electrons
 ==================================

          Occupation Numbers
          -------------------------------------------------
 S        2*2
 P        6 3
 D        0
 F        0
          -------------------------------------------------

 Total:   13

 Net Charge: 0 (Nuclei minus Electrons)

 Preset values for MO occupations will be applied through SCF cycle no. 1000000
 Thereafter, the program will assign electrons to MOs that are spatially
 similar to the occupied MOs in a "reference" cycle ("KeepOrbitals").
 The reference cycle is always the PREVIOUS cycle: it will evolve with
 the SCF procedure.



 ================================
 (Slater-type)  F U N C T I O N S  ***  (Basis and Fit)  ***
 ================================
  

 Atom Type    1  (P)
 ==============

 Valence Basis Sets:  12
 -----------------------
   1 S   12.550000
   2 S    5.600000
   2 S    4.050000
   2 P    7.450000
   2 P    4.100000
   3 S    1.300000
   3 S    1.850000
   3 S    2.650000
   3 P    0.850000
   3 P    1.300000
   3 P    2.050000
   3 D    1.900000

 Frozen Core Shells
 ------------------
    S:  1


 BAS: List of all Elementary Cartesian Basis Functions
 =====================================================

 The numbering in the list below (to the right of the function characteristics) is referred
 to in print-outs of MO eigenvectors and Mulliken populations in the BAS representation
 (as contrasted to the SFO representation).

 Notes:
 1. The functions are characterized by a polynomial prefactor (powers of x,y,z and r) and
    an exponential decay factor alpha.
 2. Since the basis sets are specific for an atom TYPE, the individual functions occur on
    all atoms of that type.
 3. The word 'Core' in the left margin signals that it is a Core Function (CF) : not a
    degree of freedom in the valence set, but only used to ensure orthogonalization of
    the other valence basis functions on the frozen Core Orbitals.


 (power of) X  Y  Z  R     Alpha  on Atom
            ==========     =====     ==========

 P                                    1
                                  ---------------------------------------------------------------------------
    Core    0  0  0  0    12.550      1
            0  0  0  1     5.600      2
            0  0  0  1     4.050      3
            1  0  0  0     7.450      4
            0  1  0  0     7.450      5
            0  0  1  0     7.450      6
            1  0  0  0     4.100      7
            0  1  0  0     4.100      8
            0  0  1  0     4.100      9
            0  0  0  2     1.300     10
            0  0  0  2     1.850     11
            0  0  0  2     2.650     12
            1  0  0  1     0.850     13
            0  1  0  1     0.850     14
            0  0  1  1     0.850     15
            1  0  0  1     1.300     16
            0  1  0  1     1.300     17
            0  0  1  1     1.300     18
            1  0  0  1     2.050     19
            0  1  0  1     2.050     20
            0  0  1  1     2.050     21
            2  0  0  0     1.900     22
            1  1  0  0     1.900     23
            1  0  1  0     1.900     24
            0  2  0  0     1.900     25
            0  1  1  0     1.900     26
            0  0  2  0     1.900     27

 Total number of charge fitting functions (nprimf)       106
 Total number of Cartesian basis functions (naos)         27
 Total number of Cartesian core functions  (ncos)          1



 BAS: List of all Elementary Cartesian Basis Functions
 =====================================================

 The numbering in the list below (to the right of the function characteristics) is referred
 to in print-outs of MO eigenvectors and Mulliken populations in the BAS representation
 (as contrasted to the SFO representation).

 Notes:
 1. The functions are characterized by a polynomial prefactor (powers of x,y,z and r) and
    an exponential decay factor alpha.
 2. Since the basis sets are specific for an atom TYPE, the individual functions occur on
    all atoms of that type.
 3. The word 'Core' in the left margin signals that it is a Core Function (CF) : not a
    degree of freedom in the valence set, but only used to ensure orthogonalization of
    the other valence basis functions on the frozen Core Orbitals.


 (power of) X  Y  Z  R     Alpha  on Atom
            ==========     =====     ==========

 P                                    1
                                  ---------------------------------------------------------------------------
    Core    0  0  0  0    12.550      1
            0  0  0  1     5.600      2
            0  0  0  1     4.050      3
            1  0  0  0     7.450      4
            0  1  0  0     7.450      5
            0  0  1  0     7.450      6
            1  0  0  0     4.100      7
            0  1  0  0     4.100      8
            0  0  1  0     4.100      9
            0  0  0  2     1.300     10
            0  0  0  2     1.850     11
            0  0  0  2     2.650     12
            1  0  0  1     0.850     13
            0  1  0  1     0.850     14
            0  0  1  1     0.850     15
            1  0  0  1     1.300     16
            0  1  0  1     1.300     17
            0  0  1  1     1.300     18
            1  0  0  1     2.050     19
            0  1  0  1     2.050     20
            0  0  1  1     2.050     21
            2  0  0  0     1.900     22
            1  1  0  0     1.900     23
            1  0  1  0     1.900     24
            0  2  0  0     1.900     25
            0  1  1  0     1.900     26
            0  0  2  0     1.900     27
1
 ***************************************************************************************************



                                              ***********************
                                              *  T E C H N I C A L  *
                                              ***********************
  



 =============================================================
 P A R A L L E L I Z A T I O N  and  V E C T O R I Z A T I O N
 =============================================================
  
 Nr of parallel processes:                                1
 Maximum vector length in NumInt loops:                 128



 =====================
 S C F   U P D A T E S
 =====================
  
 Max. nr. of cycles:                               300
 Convergence criterion:                              0.0000000100
   secondary criterion:                              0.0000000100

 Mix parameter (when DIIS does not apply):           0.2000000000
 Special mix parameter for the first cycle:          1.0000000000
 Mixed ADIIS+SDIIS will be used                  
    Max number of expansion vectors:                10
    Pure ADIIS when Max([F,P]) is above              0.1000000000
    Pure SDIIS when Max([F,P]) is below              0.0010000000
 Automatic ElectronSmearing (in case of problematic SCF convergence) disabled



 =================
 P R E C I S I O N  ***  (General: NumInt, NeglectFunctionTails, ...)  ***
 =================
  

 NumInt:           Target precision:                12.0000000000
 -------           Initial precision:               10.0000000000
                   Min. precision (optimization):   10.0000000000

 Neglect Functions:          Basis functions:        0.1000000000E-13
 ------------------          Fit functions:          0.1000000000E-13



 ===========================
 L I N E A R   S C A L I N G
 ===========================
  

 Cut-off radii density fit:                        0.1000000000E-97
 Overlap cut-off criterion AO matrix elements:     0.1000000000E-97
 Cut-offs for Coulomb potential and fitted density:0.1000000000E-97
 Cut-off criterion for Coulomb multipole terms:    0.1000000000E-97
 Progressive Convergence parameter:                 0.000000000    
1
 ***************************************************************************************************



                                            ***************************
                                            *  C O M P U T A T I O N  *
                                            ***************************
  

 Number of elements of the density matrix on this node (used, total):       378       378



 ===========================================
 Numerical Integration : Fuzzy Cells (Becke)
 ===========================================
  
 Becke grid quality: VERYGOOD       
  
 Lebedev angular grid order:             min:  13 max:  41
 Nr. of radial points:                   min:  76 max:  76

 Total nr. of points:         76
 Nr. of blocks:                1
 Block length:                76
 Nr. of dummy points:          0


 Test of Precision of the Numerical Integration Grid
 ===================================================

 Integral of the Total Core Density:                   1.99999999908170
 Relative Error:                                      -4.592E-10



 ========================
 Density Fitting (zlmFit)
 ========================
  
 ZlmFit Fit Quality: VERYGOOD       
  
 Max L-expansion:                        min:   0 max:   0
 Nr. of radial interpolation points:     min: 190 max: 190



 =====
 S C F  ***  ScaSCF  ***
 =====
  

 CYCLE    1
 SCF Error: norm([F,P])=      0.000000000000, max([F,P])=      0.000000000000
 orbitals (Q,E):
 ---------------
 S :1...5            ( 2.00   -23.0992)  ( 2.00    -9.8031)  ( 0.00    -5.2886)  ( 0.00    -3.1440)
                     ( 0.00    -1.2993)
 P :1...5            ( 6.00   -22.3278)  ( 3.00    -9.2322)  ( 0.00    -4.8937)  ( 0.00    -3.0142)
                     ( 0.00    -1.9614)
 D :1...1            ( 0.00    -6.4318)

 CYCLE    2
  SDIIS (wt  0.000):  1.0000  0.0000
 A-DIIS (wt  1.000):  0.1145  0.8855
  DIIS coefficients:  0.1145  0.8855
 SCF Error: norm([F,P])=     18.574199763001, max([F,P])=      5.729460424591
 orbitals (Q,E):
 ---------------
 S :1...3            ( 2.00    -4.5689)  ( 2.00    -0.5693)  ( 0.00    -0.0589)
 P :1...3            ( 6.00    -2.5820)  ( 3.00    -0.3376)  ( 0.00    -0.0879)
 D :1...1            ( 0.00     0.3219)

 CYCLE    3
  SDIIS (wt  0.000):  0.2387  0.7613
 A-DIIS (wt  1.000):  0.0000  1.0000
  DIIS coefficients:  0.0000  1.0000
 SCF Error: norm([F,P])=      7.892246338364, max([F,P])=      2.592954182835
 orbitals (Q,E):
 ---------------
 S :1...3            ( 2.00    -8.2146)  ( 2.00    -0.9843)  ( 0.00    -0.0433)
 P :1...3            ( 6.00    -6.5635)  ( 3.00    -0.6019)  ( 0.00    -0.0049)
 D :1...1            ( 0.00    -0.0107)

 CYCLE    4
  SDIIS (wt  0.000): -0.0871  0.2952  0.7919
 A-DIIS (wt  1.000):  0.0000  0.1757  0.8243
  DIIS coefficients:  0.0000  0.1757  0.8243
 SCF Error: norm([F,P])=      4.387176641077, max([F,P])=      1.761626650861
 orbitals (Q,E):
 ---------------
 S :1...3            ( 2.00    -5.8126)  ( 2.00    -0.3504)  ( 0.00     0.1791)
 P :1...3            ( 6.00    -3.9508)  ( 3.00    -0.0835)  ( 0.00     0.1310)
 D :1...1            ( 0.00     0.5508)

 CYCLE    5
  SDIIS (wt  0.000): -0.0109 -0.0602  0.1941  0.8770
 A-DIIS (wt  1.000):  0.0000  0.0000  0.0000  1.0000
  DIIS coefficients:  0.0000  0.0000  0.0000  1.0000
 SCF Error: norm([F,P])=      1.324345584458, max([F,P])=      0.466956153840
 orbitals (Q,E):
 ---------------
 S :1...3            ( 2.00    -6.8907)  ( 2.00    -0.7073)  ( 0.00     0.0342)
 P :1...3            ( 6.00    -5.0922)  ( 3.00    -0.3650)  ( 0.00     0.0330)
 D :1...1            ( 0.00     0.1959)

 CYCLE    6
  SDIIS (wt  0.000):  0.0000 -0.0289 -0.0346  0.4584  0.6050
 A-DIIS (wt  1.000):  0.0000  0.0000  0.0000  0.3111  0.6889
  DIIS coefficients:  0.0000  0.0000  0.0000  0.3111  0.6889
 SCF Error: norm([F,P])=      0.894656609953, max([F,P])=      0.328552344502
 orbitals (Q,E):
 ---------------
 S :1...3            ( 2.00    -6.3109)  ( 2.00    -0.4896)  ( 0.00     0.1210)
 P :1...3            ( 6.00    -4.4823)  ( 3.00    -0.1842)  ( 0.00     0.0870)
 D :1...1            ( 0.00     0.4072)

 CYCLE    7
  SDIIS (wt  0.437):  0.0003 -0.0004 -0.0106 -0.0415  0.1385  0.9137
 A-DIIS (wt  0.563):  0.0000  0.0000  0.0000  0.0000  0.0000  1.0000
  DIIS coefficients:  0.0001 -0.0002 -0.0046 -0.0181  0.0605  0.9623
 SCF Error: norm([F,P])=      0.152753231532, max([F,P])=      0.056768903175
 orbitals (Q,E):
 ---------------
 S :1...3            ( 2.00    -6.4268)  ( 2.00    -0.5264)  ( 0.00     0.1084)
 P :1...3            ( 6.00    -4.6039)  ( 3.00    -0.2126)  ( 0.00     0.0772)
 D :1...1            ( 0.00     0.3702)

 CYCLE    8
  SDIIS (wt  0.777): -0.0000 -0.0007  0.0025  0.0136 -0.0400  0.1180  0.9067
 A-DIIS (wt  0.223):  0.0000  0.0000  0.0000  0.0000  0.0000  0.0410  0.9590
  DIIS coefficients: -0.0000 -0.0005  0.0019  0.0105 -0.0311  0.1008  0.9184
 SCF Error: norm([F,P])=      0.062117061218, max([F,P])=      0.023065151090
 orbitals (Q,E):
 ---------------
 S :1...3            ( 2.00    -6.3871)  ( 2.00    -0.5116)  ( 0.00     0.1144)
 P :1...3            ( 6.00    -4.5623)  ( 3.00    -0.2008)  ( 0.00     0.0809)
 D :1...1            ( 0.00     0.3849)

 CYCLE    9
  SDIIS (wt  0.976):  0.0000  0.0000 -0.0001 -0.0000 -0.0006  0.0067  0.1535  0.8406
 A-DIIS (wt  0.024):  0.0000  0.0000  0.0000  0.0000  0.0000  0.0000  0.0000  1.0000
  DIIS coefficients:  0.0000  0.0000 -0.0001 -0.0000 -0.0006  0.0065  0.1498  0.8445
 SCF Error: norm([F,P])=      0.008957667695, max([F,P])=      0.003406470825
 orbitals (Q,E):
 ---------------
 S :1...3            ( 2.00    -6.3923)  ( 2.00    -0.5136)  ( 0.00     0.1136)
 P :1...3            ( 6.00    -4.5677)  ( 3.00    -0.2024)  ( 0.00     0.0804)
 D :1...1            ( 0.00     0.3830)

 CYCLE   10
  SDIIS (wt  1.000): -0.0000  0.0000 -0.0000 -0.0000  0.0000  0.0002  0.0031  0.0372  0.9595
  DIIS coefficients: -0.0000  0.0000 -0.0000 -0.0000  0.0000  0.0002  0.0031  0.0372  0.9595
 SCF Error: norm([F,P])=      0.000163653333, max([F,P])=      0.000063717608
 orbitals (Q,E):
 ---------------
 S :1...3            ( 2.00    -6.3922)  ( 2.00    -0.5136)  ( 0.00     0.1136)
 P :1...3            ( 6.00    -4.5676)  ( 3.00    -0.2024)  ( 0.00     0.0804)
 D :1...1            ( 0.00     0.3830)

 CYCLE   11
  SDIIS (wt  1.000):  0.0000  0.0000 -0.0000 -0.0002 -0.0016 -0.0226  1.0244
  DIIS coefficients:  0.0000  0.0000 -0.0000 -0.0002 -0.0016 -0.0226  1.0244
 SCF Error: norm([F,P])=      0.000000175567, max([F,P])=      0.000000090743
 orbitals (Q,E):
 ---------------
 S :1...3            ( 2.00    -6.3922)  ( 2.00    -0.5136)  ( 0.00     0.1136)
 P :1...3            ( 6.00    -4.5676)  ( 3.00    -0.2024)  ( 0.00     0.0804)
 D :1...1            ( 0.00     0.3830)

 CYCLE   12
  SDIIS (wt  1.000): -0.0000 -0.0000 -0.0005 -0.0247  1.0252
  DIIS coefficients: -0.0000 -0.0000 -0.0005 -0.0247  1.0252
 SCF Error: norm([F,P])=      0.000000002285, max([F,P])=      0.000000001028
 orbitals (Q,E):
 ---------------
 S :1...3            ( 2.00    -6.3922)  ( 2.00    -0.5136)  ( 0.00     0.1136)
 P :1...3            ( 6.00    -4.5676)  ( 3.00    -0.2024)  ( 0.00     0.0804)
 D :1...1            ( 0.00     0.3830)

 SCF CONVERGED

 CYCLE   13
1
 ***************************************************************************************************



                                                *******************
                                                *  R E S U L T S  *
                                                *******************
  
 *** Using FIT density in Focky
  SDIIS (wt  1.000):  0.0000  0.0017  0.0326  0.9657
  DIIS coefficients:  0.0000  0.0017  0.0326  0.9657
 SCF Error: norm([F,P])=      0.000000000342, max([F,P])=      0.000000000172

 Scaled ZORA Orbital Energies, per Irrep and Spin:
 =================================================
                        Occup              E (au)              E (eV)       Diff (eV) with prev. cycle
                        -----      --------------------        ------       --------------------------
 S
               1        2.000     -0.63922369009056E+01      -173.942               8.75E-09
               2        2.000     -0.51357095789531E+00       -13.975               6.90E-09
               3        0.000      0.11360419341918E+00         3.091
               4        0.000      0.13218598554508E+01        35.970
               5        0.000      0.10430275582036E+02       283.822
 P
               1        6.000     -0.45676340295409E+01      -124.292               8.74E-09
               2        3.000     -0.20235270966723E+00        -5.506               5.88E-09
               3        0.000      0.80400995303665E-01         2.188
               4        0.000      0.71612464912880E+00        19.487
               5        0.000      0.95392466931961E+01       259.576
 D
               1        0.000      0.38299165710671E+00        10.422


 Partially Occupied:
               2 P                -0.20235270966723E+00
  
 HOMO :        2 S                -0.51357095789531E+00
 LUMO :        3 P                 0.80400995303665E-01
  


 Orbital Energies, all Irreps
 ========================================

 Irrep        no.  (spin)   Occup              E (au)                E (eV)
 ---------------------------------------------------------------------------
 S             1             2.00       -0.63922369009056E+01      -173.9416
 P             1             6.00       -0.45676340295409E+01      -124.2916
 S             2             2.00       -0.51357095789531E+00       -13.9750
 P             2             3.00       -0.20235270966723E+00        -5.5063
 P             3             0.00        0.80400995303665E-01         2.1878
 S             3             0.00        0.11360419341918E+00         3.0913
 D             1             0.00        0.38299165710671E+00        10.4217
 P             4             0.00        0.71612464912880E+00        19.4867
 S             4             0.00        0.13218598554508E+01        35.9696
 P             5             0.00        0.95392466931961E+01       259.5761
 S             5             0.00        0.10430275582036E+02       283.8222


 Scaled ZORA Orbital Energies of the Core Orbitals:
 ==================================================

 (Note that the atoms are grouped by atomtype, see the labels, and may hence NOT be in input order)

 AtomType  Orbital  Atom                   E (au)                        E (eV)
 --------  -------  ----           --------------------        ----------------
 P           1S        1          -0.76588588395026E+02               -2084.082



 =======================================
 M U L L I K E N   P O P U L A T I O N S
 =======================================
  
 The survey below gives for each atom:
 a) the total charge (Z minus electrons)
 b) the net spin polarization (nr of electrons spin-A minus spin-B)
 c) for each spin the atomic electron valence density (integrated) per L-value.

 Atom              Charge    Spin density          S         P         D         F
 ----              ------    ------------       ------    ------    ------    ------
 1 P              -0.0000                       4.0000    9.0000    0.0000    0.0000

 Populations of individual BAS functions
 ----------------------------------------
 1 P           -0.0481  1.4990  0.5077  0.7973  0.7973  0.7973  1.2052  1.2052  1.2052  0.3372
                1.0986  0.6057  0.1369  0.1369  0.1369  0.4144  0.4144  0.4144  0.4462  0.4462
                0.4462  0.0000  0.0000  0.0000  0.0000  0.0000  0.0000

 Gross Charges per Atom (Z minus electrons)
 ==========================================
            -0.0000
 Net Total: -0.00000000



 =======================================================================
 Electrostatic potential at the Nuclei due to electrons and other nuclei
 =======================================================================
  
         Atom                  Potential
         ----                  ---------
     1)   P                  54.30955117
 
 
 ========================
 No memory problems found
 ========================
 
 Maximum number of active allocate calls:         389
 
 *******************************************************************************

                             A D F   E X I T
 NORMAL TERMINATION



 =================
 Timing Statistics
 =================
  
 Total Used :                     CPU=        0.59      System=        0.02     Elapsed=        0.65

 Calls  Section                     ( Mean, Percentage )
 ---------------------------------------------------------------------------------------------------
     3  ><      ................      0.00    0.68             0.00    0.00             0.00    0.74
     1  INIT    ................      0.06   10.81             0.01   50.00             0.08   11.48
     1  GEOMET  ................      0.02    2.70             0.00    0.00             0.02    3.82
     1  INPUTA  ................      0.00    0.68             0.00    0.00             0.00    0.56
     1  MAINSY  ................      0.02    2.70             0.00    0.00             0.02    2.40
     1  SYMFIT  ................      0.00    0.00             0.00    0.00             0.00    0.25
     1  CORORT  ................      0.00    0.00             0.00    0.00             0.00    0.25
     1  SYMORB  ................      0.00    0.00             0.00    0.00             0.00    0.14
     1  CLSMAT  ................      0.00    0.68             0.00    0.00             0.01    0.87
     1  ORTHON  ................      0.01    1.35             0.00    0.00             0.01    0.88
     1  GENPT   ................      0.02    3.38             0.00    0.00             0.02    2.94
     1  PTBAS   ................      0.00    0.68             0.00    0.00             0.01    0.80
    13  FOCKY   ................      0.03   63.51             0.00   33.33             0.03   60.72
    13  FOCKTR  ................      0.00    0.68             0.00    0.00             0.00    1.17
    13  SDIIS   ................      0.00    5.41             0.00    0.00             0.00    5.97
     1  COREPS  ................      0.02    4.05             0.00    0.00             0.02    3.73
     1  POPAN   ................      0.00    0.68             0.00    0.00             0.01    0.79
     1  DEBYE   ................      0.00    0.00             0.00   16.67             0.00    0.31
     1  EXIT PROCEDURE .........      0.01    2.03             0.00    0.00             0.01    2.19


 Currently Open Files (EXIT00)
 ====================

 Unit    Access Format  Status   Type       Ident (file)
 -------------------------------------------------------
   3      SEQ    FORM   TRANSP  NORMAL      LOGFILE
                                          ( logfile )

 ***************************************************************************************************
 (LOGFILE)
 <Feb18-2023> <03:19:11>  DIRAC 2019  RunTime: Feb18-2023 03:19:11  Nodes: 1  Procs: 1
 <Feb18-2023> <03:19:11>  NORMAL TERMINATION
 <Feb18-2023> <03:19:11>  END
 <Feb18-2023> <03:19:11>  ADF 2019  RunTime: Feb18-2023 03:19:11  Nodes: 1  Procs: 1
 <Feb18-2023> <03:19:11>  Hydrogen (TZP)
 <Feb18-2023> <03:19:11>  RunType   : CREATE
 <Feb18-2023> <03:19:11>  Net Charge: 0 (Nuclei minus Electrons)
 <Feb18-2023> <03:19:11>  Symmetry  : ATOM
  Coordinates
    Atom         X           Y           Z   (Angstrom)
    1.H         0.000000    0.000000    0.000000
 <Feb18-2023> <03:19:11>  >>>> CORORT
 <Feb18-2023> <03:19:11>  >>>> CLSMAT
 <Feb18-2023> <03:19:11>  >>>> ORTHON
 <Feb18-2023> <03:19:11>  >>>> GENPT
 <Feb18-2023> <03:19:11>  Block Length=  64
 <Feb18-2023> <03:19:11>  >>>> PTBAS
 <Feb18-2023> <03:19:11>  >>>> CYCLE
 <Feb18-2023> <03:19:11>              |Error|         MaxErr       Wt(A-DIIS)
 <Feb18-2023> <03:19:11>      1      0.00000000      0.00000000
 <Feb18-2023> <03:19:11>      2      0.03153787      0.03011049
 <Feb18-2023> <03:19:11>      3      0.00861799      0.00834303    100.0
 <Feb18-2023> <03:19:11>      4      0.00173235      0.00171862      0.7
 <Feb18-2023> <03:19:11>      5      0.00004367      0.00003977      0.0
 <Feb18-2023> <03:19:11>      6      0.00000238      0.00000216      0.0
 <Feb18-2023> <03:19:11>      7      0.00000001      0.00000001      0.0
 <Feb18-2023> <03:19:11>  SCF converged
 <Feb18-2023> <03:19:11>      8      0.00000000      0.00000000      0.0
 <Feb18-2023> <03:19:11>  >>>> POPAN
 <Feb18-2023> <03:19:11>  >>>> DEBYE
 <Feb18-2023> <03:19:11>  NORMAL TERMINATION
 <Feb18-2023> <03:19:11>  END
 <Feb18-2023> <03:19:11>  DIRAC 2019  RunTime: Feb18-2023 03:19:11  Nodes: 1  Procs: 1
 <Feb18-2023> <03:19:12>  NORMAL TERMINATION
 <Feb18-2023> <03:19:12>  END
 <Feb18-2023> <03:19:12>  ADF 2019  RunTime: Feb18-2023 03:19:12  Nodes: 1  Procs: 1
 <Feb18-2023> <03:19:12>  Phosphorus (TZP, 1s frozen)
 <Feb18-2023> <03:19:12>  RunType   : CREATE
 <Feb18-2023> <03:19:12>  Net Charge: 0 (Nuclei minus Electrons)
 <Feb18-2023> <03:19:12>  Symmetry  : ATOM
  Coordinates
    Atom         X           Y           Z   (Angstrom)
    1.P         0.000000    0.000000    0.000000
 <Feb18-2023> <03:19:12>  >>>> CORORT
 <Feb18-2023> <03:19:12>  >>>> CLSMAT
 <Feb18-2023> <03:19:12>  >>>> ORTHON
 <Feb18-2023> <03:19:12>  >>>> GENPT
 <Feb18-2023> <03:19:12>  Block Length=  76
 <Feb18-2023> <03:19:12>  >>>> PTBAS
 <Feb18-2023> <03:19:12>  >>>> CYCLE
 <Feb18-2023> <03:19:12>              |Error|         MaxErr       Wt(A-DIIS)
 <Feb18-2023> <03:19:12>      1      0.00000000      0.00000000
 <Feb18-2023> <03:19:12>      2     18.57419976      5.72946042    100.0
 <Feb18-2023> <03:19:12>      3      7.89224634      2.59295418    100.0
 <Feb18-2023> <03:19:12>      4      4.38717664      1.76162665    100.0
 <Feb18-2023> <03:19:12>      5      1.32434558      0.46695615    100.0
 <Feb18-2023> <03:19:12>      6      0.89465661      0.32855234    100.0
 <Feb18-2023> <03:19:12>      7      0.15275323      0.05676890     56.3
 <Feb18-2023> <03:19:12>      8      0.06211706      0.02306515     22.3
 <Feb18-2023> <03:19:12>      9      0.00895767      0.00340647      2.4
 <Feb18-2023> <03:19:12>     10      0.00016365      0.00006372      0.0
 <Feb18-2023> <03:19:12>     11      0.00000018      0.00000009      0.0
 <Feb18-2023> <03:19:12>     12      0.00000000      0.00000000      0.0
 <Feb18-2023> <03:19:12>  SCF converged
 <Feb18-2023> <03:19:12>     13      0.00000000      0.00000000      0.0
 <Feb18-2023> <03:19:12>  >>>> POPAN
 <Feb18-2023> <03:19:12>  >>>> DEBYE
 <Feb18-2023> <03:19:12>  NORMAL TERMINATION
 <Feb18-2023> <03:19:12>  END

 *******************************************************************************
 *                                                                             *
 *  -------------------------------------                                      *
 *   Amsterdam Density Functional  (ADF)         2019                          *
 *  -------------------------------------                                      *
 *                                               r74351 2019-04-25             *
 *                                                                             *
 *                                                                             *
 *                            =====================                            *
 *                            |                   |                            *
 *                            |     D I R A C     |                            *
 *                            |                   |                            *
 *                            =====================                            *
 *                                                                             *
 *                                                                             *
 *   Online information and documentation:  https://www.scm.com/support/       *
 *   E-mail:  support@scm.com   info@scm.com                                   *
 *                                                                             *
 *   Scientific publications using ADF results must be properly referenced     *
 *   See the User Manuals (or the web site) for recommended citations          *
 *   The terms and conditions of the End User License Agreement apply to       *
 *   the use of ADF, https://www.scm.com/license-terms/                        *
 *                                                                             *
 **********************  x86_64_linux_intel / intelmpi  ************************
 
 Licensed to: Dr. Carles Bo / Institute of Chemical Research of Catalonia ( (ICIQ) / Tarragona / Spain 2022-11-28 14:37:29
 SCM User ID: u7609
  
 DIRAC 2019  RunTime: Feb18-2023 03:19:12  Nodes: 1  Procs: 1

 Temporary files are created in /scratch/kid_0.344413959

1
 MOLYBDENUM ATOM 3d CORE RELATIVISTIC, Point Nuc, A and c fro
 N J RN H ZN XION ANUC CLIGHT
 5000   15100.00000000197.36710137 42.00000000  0.00000000   97.905406  0.1370360E+03
  PH   PHI     EPS        DEL        DELRVR
  0.30  0.30     2500.00  0.00001000  0.00001000
 IDIRC  NC1  NDEBU NPRIN  IPUN IRCOR IWCOR
   1   300     0     0     0     0     9
   XALPHA      XLATTER      RNUC
  0.70000000  0.00000000  0.00000000 Point Charge
   XN   XL   XJ      XE          XZ      XDELL
  1.0  0.0  0.5   -1500.000       2.000     0.00000
  2.0  0.0  0.5    -325.000       2.000     0.00000
  2.0  1.0  0.5    -325.000       2.000     0.00000
  2.0  1.0  1.5    -325.000       4.000     0.00000
  3.0  0.0  0.5     -70.000       2.000     0.00000
  3.0  1.0  0.5     -70.000       2.000     0.00000
  3.0  1.0  1.5     -70.000       4.000     0.00000
  3.0  2.0  1.5     -60.000       4.000     0.00000
  3.0  2.0  2.5     -60.000       6.000     0.00000
  4.0  0.0  0.5     -10.000       2.000     0.00000
  4.0  1.0  0.5     -10.000       2.000     0.00000
  4.0  1.0  1.5     -10.000       4.000     0.00000
  4.0  2.0  1.5      -1.000       4.000     0.00000
  4.0  2.0  2.5      -1.000       1.000     0.00000
  5.0  0.0  0.5      -0.500       1.000     0.00000
 ICORP=  0  NPCL=  0  DEMP=0.00  PEPS=0.000000
 R(1)=  0.1000000E-08 D=  0.1005080E+01 RNUC=  0.0000000E+00
 converged at cycle   41  DENSITY AVERAGING    0.2400
  MAXIMUM ERROR IN R.V(R) IS   0.93203452E-05
 Q,EY,EV,EZ,ESUM,ETOT,RHO  0.420000E+02 -0.161898E+03 -0.662509E+04 -0.978397E+04 -0.242700E+04 -0.404691E+04  0.342495E-11


 DIRAC CALCULATION
1                    MOLYBDENUM ATOM 3d CORE RELATIVISTIC, Point Nuc, A and c from libtc


 EXCHANGE COEFFICIENT=  0.7000000           TAIL CORRECTION=  0.           NUCLEAR RADIUS=  0.000E+00
0                       ORBITAL    N    L    J     ELECTRONS     EIGENVALUE                DELTA OF EIGENV.

                          1S1/2  1.0  0.0  0.5     2.000       -0.7276812E+03                 0.2822496E-04
                          2S1/2  2.0  0.0  0.5     2.000       -0.1028194E+03                 0.1725465E-04
                          2P1/2  2.0  1.0  0.5     2.000       -0.9468016E+02                 0.1864325E-04
                          2P3/2  2.0  1.0  1.5     4.000       -0.9076266E+02                 0.1832345E-04
                          3S1/2  3.0  0.0  0.5     2.000       -0.1747094E+02                 0.5979346E-05
                          3P1/2  3.0  1.0  0.5     2.000       -0.1436574E+02                 0.6275079E-05
                          3P3/2  3.0  1.0  1.5     4.000       -0.1371946E+02                 0.5984426E-05
                          3D3/2  3.0  2.0  1.5     4.000       -0.8203697E+01                 0.6709395E-05
                          3D5/2  3.0  2.0  2.5     6.000       -0.8081013E+01                 0.6610438E-05
                          4S1/2  4.0  0.0  0.5     2.000       -0.2338238E+01                 0.2446887E-06
                          4P1/2  4.0  1.0  0.5     2.000       -0.1452045E+01                 0.2971982E-06
                          4P3/2  4.0  1.0  1.5     4.000       -0.1358936E+01                 0.3186552E-06
                          4D3/2  4.0  2.0  1.5     4.000       -0.1184046E+00                 0.3378248E-06
                          4D5/2  4.0  2.0  2.5     1.000       -0.1108976E+00                 0.3342679E-06
                          5S1/2  5.0  0.0  0.5     1.000       -0.1320069E+00                 0.9757102E-07


                                        NUCLEAR CHARGE=   42.000000
                            INTEGRAL OF CHARGE DENSITY=   42.000000
                           SUM OF THE ORBITAL ENERGIES=  -2426.9970
                                          TOTAL ENERGY=  -4046.9128
                                        KINETIC ENERGY=   4198.0886
                             NUCLEAR ATTRACTION ENERGY=  -9783.9685
                             ELECTRON REPULSION ENERGY=   1660.3903
                                       EXCHANGE ENERGY=   -121.4232

 *******************************************************************************

                             D I R A C   E X I T
 NORMAL TERMINATION



 =================
 Timing Statistics
 =================
  
 Total Used :                     CPU=        0.45      System=        0.01     Elapsed=        0.49

 Calls  Section                     ( Mean, Percentage )
 ---------------------------------------------------------------------------------------------------
     2  ><      ................      0.00    0.00             0.00    0.00             0.00    0.00
     1  EXIT PROCEDURE .........      0.45  100.00             0.01  100.00             0.49  100.00


 Currently Open Files (EXIT00)
 ====================

 Unit    Access Format  Status   Type       Ident (file)
 -------------------------------------------------------
   3      SEQ    FORM   TRANSP  NORMAL      LOGFILE
                                          ( logfile )
 
Create Mo   file=TZP-Mo.3d
XC
  GGA PBE
End
relativistic ZORA
Corepotentials t12.rel
End

 *******************************************************************************
 *                                                                             *
 *  -------------------------------------                                      *
 *   Amsterdam Density Functional  (ADF)         2019                          *
 *  -------------------------------------                                      *
 *                                               r74351 2019-04-25             *
 *                                                                             *
 *                                                                             *
 *                              =================                              *
 *                              |               |                              *
 *                              |     A D F     |                              *
 *                              |               |                              *
 *                              =================                              *
 *                                                                             *
 *                                                                             *
 *   Online information and documentation:  https://www.scm.com/support/       *
 *   E-mail:  support@scm.com   info@scm.com                                   *
 *                                                                             *
 *   Scientific publications using ADF results must be properly referenced     *
 *   See the User Manuals (or the web site) for recommended citations          *
 *   The terms and conditions of the End User License Agreement apply to       *
 *   the use of ADF, https://www.scm.com/license-terms/                        *
 *                                                                             *
 **********************  x86_64_linux_intel / intelmpi  ************************
 
 Licensed to: Dr. Carles Bo / Institute of Chemical Research of Catalonia ( (ICIQ) / Tarragona / Spain 2022-11-28 14:37:29
 SCM User ID: u7609
  
 ADF 2019  RunTime: Feb18-2023 03:19:13  Nodes: 1  Procs: 1

 Temporary files are created in /scratch/kid_0.1218578215

 Molybdenum (TZP, 3d frozen)



 ===========================
 A T T A C H E D   F I L E S
 ===========================
  
 CREATE - Data File:    TZP-Mo.3d
                        Molybdenum (TZP, 3d frozen)
 Core Potentials:
         file : t12.rel



 ===============================
 M O D E L   P A R A M E T E R S
 ===============================
  
 DENSITY FUNCTIONAL POTENTIAL (scf)
    LDA:                               PW92                                    == Not Default ==
    Gradient Corrections:              PBEc PBEx                               == Not Default ==

 SPIN  (restricted / unrestr.)
    Molecule:                          Restricted                               

 OTHER ASPECTS
    Relativistic Corrections:          scalar (ZORA,MAPA)                      == Not Default ==

    Nuclear Charge Density Model:      Point Charge Nuclei                      
    Core Treatment:                    Frozen Orbital(s)                        

    Hyperfine or Zeeman Interaction:   ---                                      



 =====================================
 S Y M M E T R Y ,   E L E C T R O N S
 =====================================
  
 Symmetry: ATOM

 Irreducible Representations, including subspecies
 -------------------------------------------------
 S
 P:x  P:y  P:z
 D:z2  D:x2-y2  D:xy  D:xz  D:yz
 F:z3  F:z  F:xyz  F:z2x  F:z2y  F:x  F:y


 Configuration of Valence Electrons
 ==================================

          Occupation Numbers
          -------------------------------------------------
 S        2 1
 P        6
 D        5
 F        0
          -------------------------------------------------

 Total:   14

 Net Charge: 0 (Nuclei minus Electrons)

 Preset values for MO occupations will be applied through SCF cycle no. 1000000
 Thereafter, the program will assign electrons to MOs that are spatially
 similar to the occupied MOs in a "reference" cycle ("KeepOrbitals").
 The reference cycle is always the PREVIOUS cycle: it will evolve with
 the SCF procedure.



 ================================
 (Slater-type)  F U N C T I O N S  ***  (Basis and Fit)  ***
 ================================
  

 Atom Type    1  (Mo)
 ==============

 Valence Basis Sets:  18
 -----------------------
   1 S   30.500000
   2 S   17.750000
   3 S    8.350000
   2 P   18.600000
   3 P    8.700000
   3 D   10.050000
   4 S    5.100000
   4 S    3.300000
   5 S    2.150000
   5 S    1.350000
   5 S    0.870000
   4 P    4.950000
   4 P    3.300000
   4 P    2.300000
   4 D    3.500000
   4 D    1.850000
   4 D    0.970000
   5 P    1.350000

 Frozen Core Shells
 ------------------
    S:  3
    P:  2
    D:  1


 BAS: List of all Elementary Cartesian Basis Functions
 =====================================================

 The numbering in the list below (to the right of the function characteristics) is referred
 to in print-outs of MO eigenvectors and Mulliken populations in the BAS representation
 (as contrasted to the SFO representation).

 Notes:
 1. The functions are characterized by a polynomial prefactor (powers of x,y,z and r) and
    an exponential decay factor alpha.
 2. Since the basis sets are specific for an atom TYPE, the individual functions occur on
    all atoms of that type.
 3. The word 'Core' in the left margin signals that it is a Core Function (CF) : not a
    degree of freedom in the valence set, but only used to ensure orthogonalization of
    the other valence basis functions on the frozen Core Orbitals.


 (power of) X  Y  Z  R     Alpha  on Atom
            ==========     =====     ==========

 Mo                                   1
                                  ---------------------------------------------------------------------------
    Core    0  0  0  0    30.500      1
    Core    0  0  0  1    17.750      2
    Core    0  0  0  2     8.350      3
    Core    1  0  0  0    18.600      4
    Core    0  1  0  0    18.600      5
    Core    0  0  1  0    18.600      6
    Core    1  0  0  1     8.700      7
    Core    0  1  0  1     8.700      8
    Core    0  0  1  1     8.700      9
    Core    2  0  0  0    10.050     10
    Core    1  1  0  0    10.050     11
    Core    1  0  1  0    10.050     12
    Core    0  2  0  0    10.050     13
    Core    0  1  1  0    10.050     14
    Core    0  0  2  0    10.050     15
            0  0  0  3     5.100     16
            0  0  0  3     3.300     17
            0  0  0  4     2.150     18
            0  0  0  4     1.350     19
            0  0  0  4     0.870     20
            1  0  0  2     4.950     21
            0  1  0  2     4.950     22
            0  0  1  2     4.950     23
            1  0  0  2     3.300     24
            0  1  0  2     3.300     25
            0  0  1  2     3.300     26
            1  0  0  2     2.300     27
            0  1  0  2     2.300     28
            0  0  1  2     2.300     29
            2  0  0  1     3.500     30
            1  1  0  1     3.500     31
            1  0  1  1     3.500     32
            0  2  0  1     3.500     33
            0  1  1  1     3.500     34
            0  0  2  1     3.500     35
            2  0  0  1     1.850     36
            1  1  0  1     1.850     37
            1  0  1  1     1.850     38
            0  2  0  1     1.850     39
            0  1  1  1     1.850     40
            0  0  2  1     1.850     41
            2  0  0  1     0.970     42
            1  1  0  1     0.970     43
            1  0  1  1     0.970     44
            0  2  0  1     0.970     45
            0  1  1  1     0.970     46
            0  0  2  1     0.970     47
            1  0  0  3     1.350     48
            0  1  0  3     1.350     49
            0  0  1  3     1.350     50

 Total number of charge fitting functions (nprimf)       230
 Total number of Cartesian basis functions (naos)         50
 Total number of Cartesian core functions  (ncos)         15



 BAS: List of all Elementary Cartesian Basis Functions
 =====================================================

 The numbering in the list below (to the right of the function characteristics) is referred
 to in print-outs of MO eigenvectors and Mulliken populations in the BAS representation
 (as contrasted to the SFO representation).

 Notes:
 1. The functions are characterized by a polynomial prefactor (powers of x,y,z and r) and
    an exponential decay factor alpha.
 2. Since the basis sets are specific for an atom TYPE, the individual functions occur on
    all atoms of that type.
 3. The word 'Core' in the left margin signals that it is a Core Function (CF) : not a
    degree of freedom in the valence set, but only used to ensure orthogonalization of
    the other valence basis functions on the frozen Core Orbitals.


 (power of) X  Y  Z  R     Alpha  on Atom
            ==========     =====     ==========

 Mo                                   1
                                  ---------------------------------------------------------------------------
    Core    0  0  0  0    30.500      1
    Core    0  0  0  1    17.750      2
    Core    0  0  0  2     8.350      3
    Core    1  0  0  0    18.600      4
    Core    0  1  0  0    18.600      5
    Core    0  0  1  0    18.600      6
    Core    1  0  0  1     8.700      7
    Core    0  1  0  1     8.700      8
    Core    0  0  1  1     8.700      9
    Core    2  0  0  0    10.050     10
    Core    1  1  0  0    10.050     11
    Core    1  0  1  0    10.050     12
    Core    0  2  0  0    10.050     13
    Core    0  1  1  0    10.050     14
    Core    0  0  2  0    10.050     15
            0  0  0  3     5.100     16
            0  0  0  3     3.300     17
            0  0  0  4     2.150     18
            0  0  0  4     1.350     19
            0  0  0  4     0.870     20
            1  0  0  2     4.950     21
            0  1  0  2     4.950     22
            0  0  1  2     4.950     23
            1  0  0  2     3.300     24
            0  1  0  2     3.300     25
            0  0  1  2     3.300     26
            1  0  0  2     2.300     27
            0  1  0  2     2.300     28
            0  0  1  2     2.300     29
            2  0  0  1     3.500     30
            1  1  0  1     3.500     31
            1  0  1  1     3.500     32
            0  2  0  1     3.500     33
[...]
 <Feb18-2023> <03:19:12>  >>>> DEBYE
 <Feb18-2023> <03:19:12>  NORMAL TERMINATION
 <Feb18-2023> <03:19:12>  END
 <Feb18-2023> <03:19:12>  DIRAC 2019  RunTime: Feb18-2023 03:19:12  Nodes: 1  Procs: 1
 <Feb18-2023> <03:19:13>  NORMAL TERMINATION
 <Feb18-2023> <03:19:13>  END
 <Feb18-2023> <03:19:13>  ADF 2019  RunTime: Feb18-2023 03:19:13  Nodes: 1  Procs: 1
 <Feb18-2023> <03:19:13>  Molybdenum (TZP, 3d frozen)
 <Feb18-2023> <03:19:13>  RunType   : CREATE
 <Feb18-2023> <03:19:13>  Net Charge: 0 (Nuclei minus Electrons)
 <Feb18-2023> <03:19:13>  Symmetry  : ATOM
  Coordinates
    Atom         X           Y           Z   (Angstrom)
    1.Mo        0.000000    0.000000    0.000000
 <Feb18-2023> <03:19:13>  >>>> CORORT
 <Feb18-2023> <03:19:13>  >>>> CLSMAT
 <Feb18-2023> <03:19:13>  >>>> ORTHON
 <Feb18-2023> <03:19:13>  >>>> GENPT
 <Feb18-2023> <03:19:13>  Block Length= 106
 <Feb18-2023> <03:19:13>  >>>> PTBAS
 <Feb18-2023> <03:19:13>  >>>> CYCLE
 <Feb18-2023> <03:19:13>              |Error|         MaxErr       Wt(A-DIIS)
 <Feb18-2023> <03:19:13>      1      0.00000000      0.00000000
 <Feb18-2023> <03:19:13>      2      7.14879069      2.36431496    100.0
 <Feb18-2023> <03:19:13>      3      4.21227824      1.56853098    100.0
 <Feb18-2023> <03:19:13>      4      1.82331032      0.62147007    100.0
 <Feb18-2023> <03:19:13>      5      1.05882822      0.36255337    100.0
 <Feb18-2023> <03:19:13>      6      0.38630237      0.12592649    100.0
 <Feb18-2023> <03:19:13>      7      0.28473462      0.09561243     95.6
 <Feb18-2023> <03:19:14>      8      0.07042704      0.02358176     22.8
 <Feb18-2023> <03:19:14>      9      0.02402163      0.00807014      7.1
 <Feb18-2023> <03:19:14>     10      0.00169154      0.00056938      0.0
 <Feb18-2023> <03:19:14>     11      0.00000082      0.00000027      0.0
 <Feb18-2023> <03:19:14>     12      0.00000002      0.00000001      0.0
 <Feb18-2023> <03:19:14>  SCF converged
 <Feb18-2023> <03:19:14>     13      0.00000000      0.00000000      0.0
 <Feb18-2023> <03:19:14>  >>>> POPAN
 <Feb18-2023> <03:19:14>  >>>> DEBYE
 <Feb18-2023> <03:19:14>  NORMAL TERMINATION
 <Feb18-2023> <03:19:14>  END
 <Feb18-2023> <03:19:14>  DIRAC 2019  RunTime: Feb18-2023 03:19:14  Nodes: 1  Procs: 1
 <Feb18-2023> <03:19:14>  NORMAL TERMINATION
 <Feb18-2023> <03:19:14>  END
 <Feb18-2023> <03:19:14>  ADF 2019  RunTime: Feb18-2023 03:19:14  Nodes: 1  Procs: 1
 <Feb18-2023> <03:19:14>  Oxygen (TZP, 1s frozen)
 <Feb18-2023> <03:19:14>  RunType   : CREATE
 <Feb18-2023> <03:19:14>  Net Charge: 0 (Nuclei minus Electrons)
 <Feb18-2023> <03:19:14>  Symmetry  : ATOM
  Coordinates
    Atom         X           Y           Z   (Angstrom)
    1.O         0.000000    0.000000    0.000000
 <Feb18-2023> <03:19:14>  >>>> CORORT
 <Feb18-2023> <03:19:14>  >>>> CLSMAT
 <Feb18-2023> <03:19:14>  >>>> ORTHON
 <Feb18-2023> <03:19:14>  >>>> GENPT
 <Feb18-2023> <03:19:14>  Block Length=  68
 <Feb18-2023> <03:19:14>  >>>> PTBAS
 <Feb18-2023> <03:19:14>  >>>> CYCLE
 <Feb18-2023> <03:19:14>              |Error|         MaxErr       Wt(A-DIIS)
 <Feb18-2023> <03:19:14>      1      0.00000000      0.00000000
 <Feb18-2023> <03:19:14>      2      4.56299337      2.52897111
 <Feb18-2023> <03:19:14>      3      2.72315525      1.79866705    100.0
 <Feb18-2023> <03:19:14>      4      0.28902714      0.13064862    100.0
 <Feb18-2023> <03:19:14>      5      0.41661509      0.23264367    100.0
 <Feb18-2023> <03:19:14>      6      0.01372327      0.00671904      5.8
 <Feb18-2023> <03:19:14>      7      0.00110365      0.00063404      0.0
 <Feb18-2023> <03:19:14>      8      0.00003592      0.00002026      0.0
 <Feb18-2023> <03:19:14>      9      0.00000033      0.00000018      0.0
 <Feb18-2023> <03:19:15>     10      0.00000000      0.00000000      0.0
 <Feb18-2023> <03:19:15>  SCF converged
 <Feb18-2023> <03:19:15>     11      0.00000000      0.00000000      0.0
 <Feb18-2023> <03:19:15>  >>>> POPAN
 <Feb18-2023> <03:19:15>  >>>> DEBYE
 <Feb18-2023> <03:19:15>  NORMAL TERMINATION
 <Feb18-2023> <03:19:15>  END
 <Feb18-2023> <03:19:15>  ADF 2019  RunTime: Feb18-2023 03:19:15  Nodes: 1  Procs: 24
 <Feb18-2023> <03:19:16>  *** (NO TITLE) ***
 <Feb18-2023> <03:19:16>  RunType   : GEOMETRY OPTIMIZATION
 <Feb18-2023> <03:19:16>  Net Charge: -4 (Nuclei minus Electrons)
 <Feb18-2023> <03:19:16>  Symmetry  : NOSYM
 <Feb18-2023> <03:19:16>  >>>> FRAGM
  Coordinates in Geometry Cycle 1
    Atom         X           Y           Z   (Angstrom)
    1.Mo       -0.027714    1.097912   -2.518861
    2.O         1.183555   -0.299877   -2.799156
    3.Mo        2.306327   -1.097400   -1.290787
    4.O         2.465317   -1.462394    0.594865
    5.Mo        1.584479   -1.166563    2.292932
    6.O         0.073110   -0.254942    3.279149
    7.Mo       -1.573006    0.166944    2.463048
    8.O        -2.870134    0.452247    1.027078
    9.Mo       -2.515689    1.759791   -0.349171
   10.O        -1.134666    2.388738   -1.524421
   11.O         1.014543   -2.791691    2.621332
   12.O         2.911886   -1.013797    3.410646
   13.O         3.609873    0.056577   -1.499844
   14.O         2.966243   -2.527118   -2.035972
   15.O         1.148411    2.544915   -3.077195
   16.O        -0.994446    0.956785   -3.951728
   17.O        -2.987441    3.255169    0.419110
   18.O        -3.835917    1.418446   -1.439938
   19.O        -2.173641    1.286076    3.643403
   20.O        -2.536356   -1.423612    3.047094
   21.O        -0.619597    1.619152    1.219881
   22.O         1.786639    0.925862    1.775013
   23.O         1.099570    0.989098   -0.630050
   24.O         1.317985    3.208274    0.695895
   25.P         0.935796    1.747333    0.753920
   26.O        -1.288532   -0.150739   -1.323170
   27.O        -2.089883   -2.474586   -0.600347
   28.P        -0.930729   -1.509780   -0.502398
   29.O        -0.563543   -1.108750    0.987043
   30.O         0.393213   -2.072857   -1.116037
   31.H        -3.155294   -1.226624    3.779988
   32.H         0.766040    3.076211   -3.805634
 <Feb18-2023> <03:19:16>  >>>> CORORT
 <Feb18-2023> <03:19:16>  >>>> CLSMAT
 <Feb18-2023> <03:19:16>  >>>> ORTHON
 <Feb18-2023> <03:19:16>  >>>> GENPT
 <Feb18-2023> <03:19:16>  Block Length= 128
 <Feb18-2023> <03:19:17>  >>>> PTBAS
 <Feb18-2023> <03:19:21>  combining surface points...
 <Feb18-2023> <03:19:21>  combining surface points...
 <Feb18-2023> <03:19:21>  >>>> CYCLE
 <Feb18-2023> <03:19:26>              |Error|         MaxErr       Wt(A-DIIS)
 <Feb18-2023> <03:19:26>      1      4.46458464      0.62022447
 <Feb18-2023> <03:19:30>      2      5.70427893      0.38663142    100.0
 <Feb18-2023> <03:19:34>      3      4.31415840      0.56500183    100.0
 <Feb18-2023> <03:19:38>      4      4.64289727      0.40440099    100.0
 <Feb18-2023> <03:19:43>      5      1.99697083      0.20659935    100.0
 <Feb18-2023> <03:19:47>      6      3.02227962      0.28411040    100.0
 <Feb18-2023> <03:19:51>      7      0.95274651      0.09581065     95.8
 <Feb18-2023> <03:19:55>      8      2.11299323      0.19091985    100.0
 <Feb18-2023> <03:19:59>      9      0.92022507      0.08044548     80.2
 <Feb18-2023> <03:20:03>     10      0.98200377      0.16237313    100.0
 <Feb18-2023> <03:20:08>     11      0.17272459      0.01816096     17.3
 <Feb18-2023> <03:20:12>     12      0.14983042      0.01804243     17.2
 <Feb18-2023> <03:20:16>     13      0.03188975      0.00359772      2.6
 <Feb18-2023> <03:20:20>     14      0.01345360      0.00176400      0.8
 <Feb18-2023> <03:20:24>     15      0.00646631      0.00073380      0.0
 <Feb18-2023> <03:20:28>     16      0.00616345      0.00064755      0.0
 <Feb18-2023> <03:20:32>     17      0.00116434      0.00020447      0.0
 <Feb18-2023> <03:20:36>     18      0.00074496      0.00014556      0.0
 <Feb18-2023> <03:20:40>     19      0.00026801      0.00003193      0.0
 <Feb18-2023> <03:20:44>     20      0.00077750      0.00009356      0.0
 <Feb18-2023> <03:20:48>     21      0.00020218      0.00002607      0.0
 <Feb18-2023> <03:20:52>     22      0.00028500      0.00004053      0.0
 <Feb18-2023> <03:20:56>     23      0.00002649      0.00000445      0.0
 <Feb18-2023> <03:21:00>     24      0.00006348      0.00000823      0.0
 <Feb18-2023> <03:21:04>     25      0.00000959      0.00000095      0.0
 <Feb18-2023> <03:21:05>  SCF converged
 <Feb18-2023> <03:21:08>     26      0.00000972      0.00000113      0.0
 <Feb18-2023> <03:21:09>  >>>> TOTEN
 <Feb18-2023> <03:21:15>  >>>> POPAN
 <Feb18-2023> <03:21:15>  >>>> DEBYE
 <Feb18-2023> <03:21:15>  >>>> ENGRAD
 <Feb18-2023> <03:21:36>  current energy                               -9.52185358 Hartree
 <Feb18-2023> <03:21:36>  energy change                      -9.52185358     0.00100000    F
 <Feb18-2023> <03:21:36>  constrained gradient max            0.00204456     0.00100000    F
 <Feb18-2023> <03:21:36>  constrained gradient rms            0.00067477     0.00066667    F
 <Feb18-2023> <03:21:36>  gradient max                        0.00204456
 <Feb18-2023> <03:21:36>  gradient rms                        0.00067477
 <Feb18-2023> <03:21:36>  cart. step max                      0.00256616     0.01000000    T
 <Feb18-2023> <03:21:36>  cart. step rms                      0.00081644     0.00666667    T
  Coordinates in Geometry Cycle 2
    Atom         X           Y           Z   (Angstrom)
    1.Mo       -0.027691    1.097754   -2.518423
    2.O         1.183172   -0.299967   -2.798590
    3.Mo        2.305942   -1.097664   -1.290588
    4.O         2.465767   -1.462829    0.594838
    5.Mo        1.584810   -1.165994    2.292551
    6.O         0.073292   -0.254080    3.278896
    7.Mo       -1.572590    0.167259    2.462961
    8.O        -2.869708    0.451709    1.026860
    9.Mo       -2.515697    1.759293   -0.349275
   10.O        -1.134573    2.388614   -1.524028
   11.O         1.014480   -2.790325    2.620101
   12.O         2.911854   -1.013511    3.409331
   13.O         3.608367    0.056587   -1.498907
   14.O         2.965437   -2.526383   -2.035971
   15.O         1.148847    2.544899   -3.075112
   16.O        -0.994114    0.957167   -3.950591
   17.O        -2.987261    3.253874    0.418864
   18.O        -3.834776    1.417156   -1.439925
   19.O        -2.173511    1.286074    3.642349
   20.O        -2.535317   -1.424103    3.045897
   21.O        -0.619348    1.620047    1.220446
   22.O         1.788153    0.926977    1.775910
   23.O         1.098979    0.988635   -0.629323
   24.O         1.317331    3.208793    0.694227
   25.P         0.936131    1.747178    0.754471
   26.O        -1.288564   -0.151207   -1.323260
   27.O        -2.092267   -2.472832   -0.599571
   28.P        -0.930953   -1.509850   -0.502137
   29.O        -0.563123   -1.108837    0.987011
   30.O         0.392416   -2.074368   -1.116893
   31.H        -3.155104   -1.226179    3.777422
   32.H         0.766018    3.074914   -3.803852
 <Feb18-2023> <03:21:36>  >>>> CORORT
 <Feb18-2023> <03:21:36>  >>>> CLSMAT
 <Feb18-2023> <03:21:36>  >>>> ORTHON
 <Feb18-2023> <03:21:36>  >>>> GENPT
 <Feb18-2023> <03:21:37>  Block Length= 128
 <Feb18-2023> <03:21:37>  >>>> PTBAS
 <Feb18-2023> <03:21:42>  combining surface points...
 <Feb18-2023> <03:21:42>  combining surface points...
 <Feb18-2023> <03:21:42>  >>>> CYCLE
 <Feb18-2023> <03:21:46>              |Error|         MaxErr       Wt(A-DIIS)
 <Feb18-2023> <03:21:46>      1      0.18231454      0.02338378
 <Feb18-2023> <03:21:51>      2      0.61410557      0.05780359    100.0
 <Feb18-2023> <03:21:55>      3      0.21509273      0.02768160    100.0
 <Feb18-2023> <03:21:59>      4      0.40625961      0.03790161    100.0
 <Feb18-2023> <03:22:03>      5      0.53683377      0.06764373    100.0
 <Feb18-2023> <03:22:07>      6      0.44710317      0.04266613    100.0
 <Feb18-2023> <03:22:12>      7      0.19859816      0.02472517     24.0
 <Feb18-2023> <03:22:16>      8      0.11079904      0.01511048     14.3
 <Feb18-2023> <03:22:20>      9      0.05160543      0.00717442      6.2
 <Feb18-2023> <03:22:24>     10      0.02088330      0.00271471      1.7
 <Feb18-2023> <03:22:28>     11      0.00533797      0.00067366      0.0
 <Feb18-2023> <03:22:32>     12      0.00176213      0.00023823      0.0
 <Feb18-2023> <03:22:36>     13      0.00307734      0.00031911      0.0
 <Feb18-2023> <03:22:40>     14      0.00073448      0.00008705      0.0
 <Feb18-2023> <03:22:44>     15      0.00028917      0.00004709      0.0
 <Feb18-2023> <03:22:48>     16      0.00007243      0.00000785      0.0
 <Feb18-2023> <03:22:52>     17      0.00010913      0.00002047      0.0
 <Feb18-2023> <03:22:56>     18      0.00002443      0.00000250      0.0
 <Feb18-2023> <03:23:00>     19      0.00003749      0.00000391      0.0
 <Feb18-2023> <03:23:04>     20      0.00000745      0.00000116      0.0
 <Feb18-2023> <03:23:08>     21      0.00001022      0.00000129      0.0
 <Feb18-2023> <03:23:12>     22      0.00000400      0.00000040      0.0
 <Feb18-2023> <03:23:13>  SCF converged
 <Feb18-2023> <03:23:16>     23      0.00000158      0.00000022      0.0
 <Feb18-2023> <03:23:17>  >>>> TOTEN
 <Feb18-2023> <03:23:22>  >>>> POPAN
 <Feb18-2023> <03:23:23>  >>>> DEBYE
 <Feb18-2023> <03:23:23>  >>>> ENGRAD
 <Feb18-2023> <03:23:44>  current energy                               -9.52183505 Hartree
 <Feb18-2023> <03:23:44>  energy change                       0.00001852     0.00100000    T
 <Feb18-2023> <03:23:44>  constrained gradient max            0.00092965     0.00100000    T
 <Feb18-2023> <03:23:44>  constrained gradient rms            0.00031683     0.00066667    T
 <Feb18-2023> <03:23:44>  gradient max                        0.00092965
 <Feb18-2023> <03:23:44>  gradient rms                        0.00031683
 <Feb18-2023> <03:23:44>  cart. step max                      0.00280921     0.01000000    T
 <Feb18-2023> <03:23:44>  cart. step rms                      0.00085980     0.00666667    T
 <Feb18-2023> <03:23:44>  GEOMETRY CONVERGED
 <Feb18-2023> <03:23:44>  Calculating Energy Terms for Final Geometry
  Coordinates in Geometry Cycle 2
    Atom         X           Y           Z   (Angstrom)
    1.Mo       -0.027691    1.097754   -2.518423
    2.O         1.183172   -0.299967   -2.798590
    3.Mo        2.305942   -1.097664   -1.290588
    4.O         2.465767   -1.462829    0.594838
    5.Mo        1.584810   -1.165994    2.292551
    6.O         0.073292   -0.254080    3.278896
    7.Mo       -1.572590    0.167259    2.462961
    8.O        -2.869708    0.451709    1.026860
    9.Mo       -2.515697    1.759293   -0.349275
   10.O        -1.134573    2.388614   -1.524028
   11.O         1.014480   -2.790325    2.620101
   12.O         2.911854   -1.013511    3.409331
   13.O         3.608367    0.056587   -1.498907
   14.O         2.965437   -2.526383   -2.035971
   15.O         1.148847    2.544899   -3.075112
   16.O        -0.994114    0.957167   -3.950591
   17.O        -2.987261    3.253874    0.418864
   18.O        -3.834776    1.417156   -1.439925
   19.O        -2.173511    1.286074    3.642349
   20.O        -2.535317   -1.424103    3.045897
   21.O        -0.619348    1.620047    1.220446
   22.O         1.788153    0.926977    1.775910
   23.O         1.098979    0.988635   -0.629323
   24.O         1.317331    3.208793    0.694227
   25.P         0.936131    1.747178    0.754471
   26.O        -1.288564   -0.151207   -1.323260
   27.O        -2.092267   -2.472832   -0.599571
   28.P        -0.930953   -1.509850   -0.502137
   29.O        -0.563123   -1.108837    0.987011
   30.O         0.392416   -2.074368   -1.116893
   31.H        -3.155104   -1.226179    3.777422
   32.H         0.766018    3.074914   -3.803852
 <Feb18-2023> <03:23:44>  >>>> CORORT
 <Feb18-2023> <03:23:44>  >>>> CLSMAT
 <Feb18-2023> <03:23:44>  >>>> ORTHON
 <Feb18-2023> <03:23:45>  >>>> GENPT
 <Feb18-2023> <03:23:45>  Block Length= 128
 <Feb18-2023> <03:23:45>  >>>> PTBAS
 <Feb18-2023> <03:23:50>  combining surface points...
 <Feb18-2023> <03:23:50>  combining surface points...
 <Feb18-2023> <03:23:50>  >>>> CYCLE
 <Feb18-2023> <03:23:55>              |Error|         MaxErr       Wt(A-DIIS)
 <Feb18-2023> <03:23:55>      1      0.18194194      0.03537031
 <Feb18-2023> <03:23:59>      2      0.61464483      0.06728368    100.0
 <Feb18-2023> <03:24:03>      3      0.21829639      0.03812427    100.0
 <Feb18-2023> <03:24:07>      4      0.43207422      0.05076995    100.0
 <Feb18-2023> <03:24:11>      5      0.48356103      0.07652411    100.0
 <Feb18-2023> <03:24:15>      6      0.46987727      0.05413312    100.0
 <Feb18-2023> <03:24:20>      7      0.16059452      0.02275112     22.0
 <Feb18-2023> <03:24:24>      8      0.11065180      0.01151601     10.6
 <Feb18-2023> <03:24:28>      9      0.03794833      0.00678110      5.8
 <Feb18-2023> <03:24:32>     10      0.02146429      0.00363541      2.7
 <Feb18-2023> <03:24:36>     11      0.00499013      0.00055817      0.0
 <Feb18-2023> <03:24:40>     12      0.00167127      0.00023929      0.0
 <Feb18-2023> <03:24:44>     13      0.00265840      0.00031010      0.0
 <Feb18-2023> <03:24:48>     14      0.00076296      0.00007627      0.0
 <Feb18-2023> <03:24:52>     15      0.00029334      0.00004373      0.0
 <Feb18-2023> <03:24:56>     16      0.00007761      0.00001852      0.0
 <Feb18-2023> <03:25:00>     17      0.00010213      0.00002461      0.0
 <Feb18-2023> <03:25:04>     18      0.00002892      0.00000365      0.0
 <Feb18-2023> <03:25:08>     19      0.00004037      0.00000620      0.0
 <Feb18-2023> <03:25:12>     20      0.00002238      0.00000302      0.0
 <Feb18-2023> <03:25:16>     21      0.00002467      0.00000454      0.0
 <Feb18-2023> <03:25:20>     22      0.00000353      0.00000042      0.0
 <Feb18-2023> <03:25:21>  SCF converged
 <Feb18-2023> <03:25:24>     23      0.00000175      0.00000025      0.0
 <Feb18-2023> <03:25:27>  >>>> TOTEN
 <Feb18-2023> <03:25:38>  QTAIM: determining topology...
 <Feb18-2023> <03:25:46>  >>>> POPAN
 <Feb18-2023> <03:25:46>  >>>> DEBYE
 <Feb18-2023> <03:25:47>  >>>> AMETS
 <Feb18-2023> <03:25:47>  >>>> POPUL
 <Feb18-2023> <03:25:47>   Bond Energy          -9.52183505 a.u.
 <Feb18-2023> <03:25:47>   Bond Energy        -259.10231500 eV
 <Feb18-2023> <03:25:47>   Bond Energy       -5975.04       kcal/mol
 <Feb18-2023> <03:25:47>  >>>> ENHESS
 <Feb18-2023> <03:25:58>  === NUCLEUS:     1
 <Feb18-2023> <03:30:40>  === NUCLEUS:     2
 <Feb18-2023> <03:34:46>  === NUCLEUS:     3
 <Feb18-2023> <03:38:57>  === NUCLEUS:     4
 <Feb18-2023> <03:43:18>  === NUCLEUS:     5
 <Feb18-2023> <03:47:34>  === NUCLEUS:     6
 <Feb18-2023> <03:51:30>  === NUCLEUS:     7
 <Feb18-2023> <03:55:26>  === NUCLEUS:     8
 <Feb18-2023> <03:59:18>  === NUCLEUS:     9
 <Feb18-2023> <04:03:15>  === NUCLEUS:    10
 <Feb18-2023> <04:07:11>  === NUCLEUS:    11
 <Feb18-2023> <04:11:02>  === NUCLEUS:    12
 <Feb18-2023> <04:14:53>  === NUCLEUS:    13
 <Feb18-2023> <04:18:44>  === NUCLEUS:    14
 <Feb18-2023> <04:22:40>  === NUCLEUS:    15
 <Feb18-2023> <04:26:35>  === NUCLEUS:    16
 <Feb18-2023> <04:30:25>  === NUCLEUS:    17
 <Feb18-2023> <04:34:21>  === NUCLEUS:    18
 <Feb18-2023> <04:38:12>  === NUCLEUS:    19
 <Feb18-2023> <04:42:07>  === NUCLEUS:    20
 <Feb18-2023> <04:46:12>  === NUCLEUS:    21
 <Feb18-2023> <04:50:12>  === NUCLEUS:    22
 <Feb18-2023> <04:54:12>  === NUCLEUS:    23
 <Feb18-2023> <04:58:17>  === NUCLEUS:    24
 <Feb18-2023> <05:02:03>  === NUCLEUS:    25
 <Feb18-2023> <05:06:04>  === NUCLEUS:    26
 <Feb18-2023> <05:09:55>  === NUCLEUS:    27
 <Feb18-2023> <05:14:00>  === NUCLEUS:    28
 <Feb18-2023> <05:17:55>  === NUCLEUS:    29
 <Feb18-2023> <05:22:06>  === NUCLEUS:    30
 <Feb18-2023> <05:26:16>  === NUCLEUS:    31
 <Feb18-2023> <05:30:05>  === NUCLEUS:    32
 <Feb18-2023> <05:33:58>  >>>> CALC_HESS_PMAT
 <Feb18-2023> <05:34:59>  >>>> CALC_HESS_WMAT
 <Feb18-2023> <05:35:06>  NORMAL TERMINATION
 <Feb18-2023> <05:35:07>  END
