
 *******************************************************************************
 *                                                                             *
 *  -------------------------------------                                      *
 *   Amsterdam Density Functional  (ADF)         2019                          *
 *  -------------------------------------                                      *
 *                                               r74351 2019-04-25             *
 *                                                                             *
 *                                                                             *
 *                            =====================                            *
 *                            |                   |                            *
 *                            |     D I R A C     |                            *
 *                            |                   |                            *
 *                            =====================                            *
 *                                                                             *
 *                                                                             *
 *   Online information and documentation:  https://www.scm.com/support/       *
 *   E-mail:  support@scm.com   info@scm.com                                   *
 *                                                                             *
 *   Scientific publications using ADF results must be properly referenced     *
 *   See the User Manuals (or the web site) for recommended citations          *
 *   The terms and conditions of the End User License Agreement apply to       *
 *   the use of ADF, https://www.scm.com/license-terms/                        *
 *                                                                             *
 **********************  x86_64_linux_intel / intelmpi  ************************
 
 Licensed to: Dr. Carles Bo / Institute of Chemical Research of Catalonia ( (ICIQ) / Tarragona / Spain 2022-11-28 14:37:29
 SCM User ID: u7609
  
 DIRAC 2019  RunTime: Feb17-2023 22:21:20  Nodes: 1  Procs: 1

 Temporary files are created in /scratch/kid_0.60252185

1
 PHOSPHORUS ATOM 1s CORE RELATIVISTIC, Point Nuc, A and c fro
 N J RN H ZN XION ANUC CLIGHT
 5000    7100.00000000197.36710137 15.00000000  0.00000000   30.973761  0.1370360E+03
  PH   PHI     EPS        DEL        DELRVR
  0.30  0.30     2500.00  0.00001000  0.00001000
 IDIRC  NC1  NDEBU NPRIN  IPUN IRCOR IWCOR
   1   300     0     0     0     0     1
   XALPHA      XLATTER      RNUC
  0.70000000  0.00000000  0.00000000 Point Charge
   XN   XL   XJ      XE          XZ      XDELL
  1.0  0.0  0.5    -600.000       2.000     0.00000
  2.0  0.0  0.5     -75.000       2.000     0.00000
  2.0  1.0  0.5     -70.000       2.000     0.00000
  2.0  1.0  1.5     -70.000       4.000     0.00000
  3.0  0.0  0.5     -25.000       2.000     0.00000
  3.0  1.0  0.5      -0.250       2.000     0.00000
  3.0  1.0  1.5      -0.250       1.000     0.00000
 ICORP=  0  NPCL=  0  DEMP=0.00  PEPS=0.000000
 R(1)=  0.1000000E-08 D=  0.1005080E+01 RNUC=  0.0000000E+00
 converged at cycle   47  DENSITY AVERAGING    0.3000
  MAXIMUM ERROR IN R.V(R) IS   0.93255186E-05
 Q,EY,EV,EZ,ESUM,ETOT,RHO  0.150000E+02 -0.290161E+02 -0.536820E+03 -0.814855E+03 -0.194417E+03 -0.340688E+03  0.340722E-13


 DIRAC CALCULATION
1                    PHOSPHORUS ATOM 1s CORE RELATIVISTIC, Point Nuc, A and c from libtc


 EXCHANGE COEFFICIENT=  0.7000000           TAIL CORRECTION=  0.           NUCLEAR RADIUS=  0.000E+00
0                       ORBITAL    N    L    J     ELECTRONS     EIGENVALUE                DELTA OF EIGENV.

                          1S1/2  1.0  0.0  0.5     2.000       -0.7640874E+02                 0.2597240E-06
                          2S1/2  2.0  0.0  0.5     2.000       -0.6353640E+01                 0.3482713E-07
                          2P1/2  2.0  1.0  0.5     2.000       -0.4588256E+01                 0.3010938E-07
                          2P3/2  2.0  1.0  1.5     4.000       -0.4554413E+01                 0.2993762E-07
                          3S1/2  3.0  0.0  0.5     2.000       -0.4844206E+00                 0.1693624E-07
                          3P1/2  3.0  1.0  0.5     2.000       -0.1770291E+00                 0.1234259E-07
                          3P3/2  3.0  1.0  1.5     1.000       -0.1750217E+00                 0.1224459E-07


                                        NUCLEAR CHARGE=   15.000000
                            INTEGRAL OF CHARGE DENSITY=   15.000000
                           SUM OF THE ORBITAL ENERGIES=   -194.4169
                                          TOTAL ENERGY=   -340.6884
                                        KINETIC ENERGY=    342.4034
                             NUCLEAR ATTRACTION ENERGY=   -814.8554
                             ELECTRON REPULSION ENERGY=    153.5256
                                       EXCHANGE ENERGY=    -21.7621

 *******************************************************************************

                             D I R A C   E X I T
 NORMAL TERMINATION



 =================
 Timing Statistics
 =================
  
 Total Used :                     CPU=        0.27      System=        0.00     Elapsed=        0.28

 Calls  Section                     ( Mean, Percentage )
 ---------------------------------------------------------------------------------------------------
     2  ><      ................      0.00    0.00             0.00    0.00             0.00    0.00
     1  EXIT PROCEDURE .........      0.27  100.00             0.00  100.00             0.28  100.00


 Currently Open Files (EXIT00)
 ====================

 Unit    Access Format  Status   Type       Ident (file)
 -------------------------------------------------------
   3      SEQ    FORM   TRANSP  NORMAL      LOGFILE
                                          ( logfile )
 
Create P   file=TZP-P.1s
XC
  GGA PBE
End
relativistic ZORA
Corepotentials t12.rel
End

 *******************************************************************************
 *                                                                             *
 *  -------------------------------------                                      *
 *   Amsterdam Density Functional  (ADF)         2019                          *
 *  -------------------------------------                                      *
 *                                               r74351 2019-04-25             *
 *                                                                             *
 *                                                                             *
 *                              =================                              *
 *                              |               |                              *
 *                              |     A D F     |                              *
 *                              |               |                              *
 *                              =================                              *
 *                                                                             *
 *                                                                             *
 *   Online information and documentation:  https://www.scm.com/support/       *
 *   E-mail:  support@scm.com   info@scm.com                                   *
 *                                                                             *
 *   Scientific publications using ADF results must be properly referenced     *
 *   See the User Manuals (or the web site) for recommended citations          *
 *   The terms and conditions of the End User License Agreement apply to       *
 *   the use of ADF, https://www.scm.com/license-terms/                        *
 *                                                                             *
 **********************  x86_64_linux_intel / intelmpi  ************************
 
 Licensed to: Dr. Carles Bo / Institute of Chemical Research of Catalonia ( (ICIQ) / Tarragona / Spain 2022-11-28 14:37:29
 SCM User ID: u7609
  
 ADF 2019  RunTime: Feb17-2023 22:21:20  Nodes: 1  Procs: 1

 Temporary files are created in /scratch/kid_0.1115864830

 Phosphorus (TZP, 1s frozen)



 ===========================
 A T T A C H E D   F I L E S
 ===========================
  
 CREATE - Data File:    TZP-P.1s
                        Phosphorus (TZP, 1s frozen)
 Core Potentials:
         file : t12.rel



 ===============================
 M O D E L   P A R A M E T E R S
 ===============================
  
 DENSITY FUNCTIONAL POTENTIAL (scf)
    LDA:                               PW92                                    == Not Default ==
    Gradient Corrections:              PBEc PBEx                               == Not Default ==

 SPIN  (restricted / unrestr.)
    Molecule:                          Restricted                               

 OTHER ASPECTS
    Relativistic Corrections:          scalar (ZORA,MAPA)                      == Not Default ==

    Nuclear Charge Density Model:      Point Charge Nuclei                      
    Core Treatment:                    Frozen Orbital(s)                        

    Hyperfine or Zeeman Interaction:   ---                                      



 =====================================
 S Y M M E T R Y ,   E L E C T R O N S
 =====================================
  
 Symmetry: ATOM

 Irreducible Representations, including subspecies
 -------------------------------------------------
 S
 P:x  P:y  P:z
 D:z2  D:x2-y2  D:xy  D:xz  D:yz
 F:z3  F:z  F:xyz  F:z2x  F:z2y  F:x  F:y


 Configuration of Valence Electrons
 ==================================

          Occupation Numbers
          -------------------------------------------------
 S        2*2
 P        6 3
 D        0
 F        0
          -------------------------------------------------

 Total:   13

 Net Charge: 0 (Nuclei minus Electrons)

 Preset values for MO occupations will be applied through SCF cycle no. 1000000
 Thereafter, the program will assign electrons to MOs that are spatially
 similar to the occupied MOs in a "reference" cycle ("KeepOrbitals").
 The reference cycle is always the PREVIOUS cycle: it will evolve with
 the SCF procedure.



 ================================
 (Slater-type)  F U N C T I O N S  ***  (Basis and Fit)  ***
 ================================
  

 Atom Type    1  (P)
 ==============

 Valence Basis Sets:  12
 -----------------------
   1 S   12.550000
   2 S    5.600000
   2 S    4.050000
   2 P    7.450000
   2 P    4.100000
   3 S    1.300000
   3 S    1.850000
   3 S    2.650000
   3 P    0.850000
   3 P    1.300000
   3 P    2.050000
   3 D    1.900000

 Frozen Core Shells
 ------------------
    S:  1


 BAS: List of all Elementary Cartesian Basis Functions
 =====================================================

 The numbering in the list below (to the right of the function characteristics) is referred
 to in print-outs of MO eigenvectors and Mulliken populations in the BAS representation
 (as contrasted to the SFO representation).

 Notes:
 1. The functions are characterized by a polynomial prefactor (powers of x,y,z and r) and
    an exponential decay factor alpha.
 2. Since the basis sets are specific for an atom TYPE, the individual functions occur on
    all atoms of that type.
 3. The word 'Core' in the left margin signals that it is a Core Function (CF) : not a
    degree of freedom in the valence set, but only used to ensure orthogonalization of
    the other valence basis functions on the frozen Core Orbitals.


 (power of) X  Y  Z  R     Alpha  on Atom
            ==========     =====     ==========

 P                                    1
                                  ---------------------------------------------------------------------------
    Core    0  0  0  0    12.550      1
            0  0  0  1     5.600      2
            0  0  0  1     4.050      3
            1  0  0  0     7.450      4
            0  1  0  0     7.450      5
            0  0  1  0     7.450      6
            1  0  0  0     4.100      7
            0  1  0  0     4.100      8
            0  0  1  0     4.100      9
            0  0  0  2     1.300     10
            0  0  0  2     1.850     11
            0  0  0  2     2.650     12
            1  0  0  1     0.850     13
            0  1  0  1     0.850     14
            0  0  1  1     0.850     15
            1  0  0  1     1.300     16
            0  1  0  1     1.300     17
            0  0  1  1     1.300     18
            1  0  0  1     2.050     19
            0  1  0  1     2.050     20
            0  0  1  1     2.050     21
            2  0  0  0     1.900     22
            1  1  0  0     1.900     23
            1  0  1  0     1.900     24
            0  2  0  0     1.900     25
            0  1  1  0     1.900     26
            0  0  2  0     1.900     27

 Total number of charge fitting functions (nprimf)       106
 Total number of Cartesian basis functions (naos)         27
 Total number of Cartesian core functions  (ncos)          1



 BAS: List of all Elementary Cartesian Basis Functions
 =====================================================

 The numbering in the list below (to the right of the function characteristics) is referred
 to in print-outs of MO eigenvectors and Mulliken populations in the BAS representation
 (as contrasted to the SFO representation).

 Notes:
 1. The functions are characterized by a polynomial prefactor (powers of x,y,z and r) and
    an exponential decay factor alpha.
 2. Since the basis sets are specific for an atom TYPE, the individual functions occur on
    all atoms of that type.
 3. The word 'Core' in the left margin signals that it is a Core Function (CF) : not a
    degree of freedom in the valence set, but only used to ensure orthogonalization of
    the other valence basis functions on the frozen Core Orbitals.


 (power of) X  Y  Z  R     Alpha  on Atom
            ==========     =====     ==========

 P                                    1
                                  ---------------------------------------------------------------------------
    Core    0  0  0  0    12.550      1
            0  0  0  1     5.600      2
            0  0  0  1     4.050      3
            1  0  0  0     7.450      4
            0  1  0  0     7.450      5
            0  0  1  0     7.450      6
            1  0  0  0     4.100      7
            0  1  0  0     4.100      8
            0  0  1  0     4.100      9
            0  0  0  2     1.300     10
            0  0  0  2     1.850     11
            0  0  0  2     2.650     12
            1  0  0  1     0.850     13
            0  1  0  1     0.850     14
            0  0  1  1     0.850     15
            1  0  0  1     1.300     16
            0  1  0  1     1.300     17
            0  0  1  1     1.300     18
            1  0  0  1     2.050     19
            0  1  0  1     2.050     20
            0  0  1  1     2.050     21
            2  0  0  0     1.900     22
            1  1  0  0     1.900     23
            1  0  1  0     1.900     24
            0  2  0  0     1.900     25
            0  1  1  0     1.900     26
            0  0  2  0     1.900     27
1
 ***************************************************************************************************



                                              ***********************
                                              *  T E C H N I C A L  *
                                              ***********************
  



 =============================================================
 P A R A L L E L I Z A T I O N  and  V E C T O R I Z A T I O N
 =============================================================
  
 Nr of parallel processes:                                1
 Maximum vector length in NumInt loops:                 128



 =====================
 S C F   U P D A T E S
 =====================
  
 Max. nr. of cycles:                               300
 Convergence criterion:                              0.0000000100
   secondary criterion:                              0.0000000100

 Mix parameter (when DIIS does not apply):           0.2000000000
 Special mix parameter for the first cycle:          1.0000000000
 Mixed ADIIS+SDIIS will be used                  
    Max number of expansion vectors:                10
    Pure ADIIS when Max([F,P]) is above              0.1000000000
    Pure SDIIS when Max([F,P]) is below              0.0010000000
 Automatic ElectronSmearing (in case of problematic SCF convergence) disabled



 =================
 P R E C I S I O N  ***  (General: NumInt, NeglectFunctionTails, ...)  ***
 =================
  

 NumInt:           Target precision:                12.0000000000
 -------           Initial precision:               10.0000000000
                   Min. precision (optimization):   10.0000000000

 Neglect Functions:          Basis functions:        0.1000000000E-13
 ------------------          Fit functions:          0.1000000000E-13



 ===========================
 L I N E A R   S C A L I N G
 ===========================
  

 Cut-off radii density fit:                        0.1000000000E-97
 Overlap cut-off criterion AO matrix elements:     0.1000000000E-97
 Cut-offs for Coulomb potential and fitted density:0.1000000000E-97
 Cut-off criterion for Coulomb multipole terms:    0.1000000000E-97
 Progressive Convergence parameter:                 0.000000000    
1
 ***************************************************************************************************



                                            ***************************
                                            *  C O M P U T A T I O N  *
                                            ***************************
  

 Number of elements of the density matrix on this node (used, total):       378       378



 ===========================================
 Numerical Integration : Fuzzy Cells (Becke)
 ===========================================
  
 Becke grid quality: VERYGOOD       
  
 Lebedev angular grid order:             min:  13 max:  41
 Nr. of radial points:                   min:  76 max:  76

 Total nr. of points:         76
 Nr. of blocks:                1
 Block length:                76
 Nr. of dummy points:          0


 Test of Precision of the Numerical Integration Grid
 ===================================================

 Integral of the Total Core Density:                   1.99999999908170
 Relative Error:                                      -4.592E-10



 ========================
 Density Fitting (zlmFit)
 ========================
  
 ZlmFit Fit Quality: VERYGOOD       
  
 Max L-expansion:                        min:   0 max:   0
 Nr. of radial interpolation points:     min: 190 max: 190



 =====
 S C F  ***  ScaSCF  ***
 =====
  

 CYCLE    1
 SCF Error: norm([F,P])=      0.000000000000, max([F,P])=      0.000000000000
 orbitals (Q,E):
 ---------------
 S :1...5            ( 2.00   -23.0992)  ( 2.00    -9.8031)  ( 0.00    -5.2886)  ( 0.00    -3.1440)
                     ( 0.00    -1.2993)
 P :1...5            ( 6.00   -22.3278)  ( 3.00    -9.2322)  ( 0.00    -4.8937)  ( 0.00    -3.0142)
                     ( 0.00    -1.9614)
 D :1...1            ( 0.00    -6.4318)

 CYCLE    2
  SDIIS (wt  0.000):  1.0000  0.0000
 A-DIIS (wt  1.000):  0.1145  0.8855
  DIIS coefficients:  0.1145  0.8855
 SCF Error: norm([F,P])=     18.574199763001, max([F,P])=      5.729460424591
 orbitals (Q,E):
 ---------------
 S :1...3            ( 2.00    -4.5689)  ( 2.00    -0.5693)  ( 0.00    -0.0589)
 P :1...3            ( 6.00    -2.5820)  ( 3.00    -0.3376)  ( 0.00    -0.0879)
 D :1...1            ( 0.00     0.3219)

 CYCLE    3
  SDIIS (wt  0.000):  0.2387  0.7613
 A-DIIS (wt  1.000):  0.0000  1.0000
  DIIS coefficients:  0.0000  1.0000
 SCF Error: norm([F,P])=      7.892246338364, max([F,P])=      2.592954182835
 orbitals (Q,E):
 ---------------
 S :1...3            ( 2.00    -8.2146)  ( 2.00    -0.9843)  ( 0.00    -0.0433)
 P :1...3            ( 6.00    -6.5635)  ( 3.00    -0.6019)  ( 0.00    -0.0049)
 D :1...1            ( 0.00    -0.0107)

 CYCLE    4
  SDIIS (wt  0.000): -0.0871  0.2952  0.7919
 A-DIIS (wt  1.000):  0.0000  0.1757  0.8243
  DIIS coefficients:  0.0000  0.1757  0.8243
 SCF Error: norm([F,P])=      4.387176641077, max([F,P])=      1.761626650861
 orbitals (Q,E):
 ---------------
 S :1...3            ( 2.00    -5.8126)  ( 2.00    -0.3504)  ( 0.00     0.1791)
 P :1...3            ( 6.00    -3.9508)  ( 3.00    -0.0835)  ( 0.00     0.1310)
 D :1...1            ( 0.00     0.5508)

 CYCLE    5
  SDIIS (wt  0.000): -0.0109 -0.0602  0.1941  0.8770
 A-DIIS (wt  1.000):  0.0000  0.0000  0.0000  1.0000
  DIIS coefficients:  0.0000  0.0000  0.0000  1.0000
 SCF Error: norm([F,P])=      1.324345584458, max([F,P])=      0.466956153840
 orbitals (Q,E):
 ---------------
 S :1...3            ( 2.00    -6.8907)  ( 2.00    -0.7073)  ( 0.00     0.0342)
 P :1...3            ( 6.00    -5.0922)  ( 3.00    -0.3650)  ( 0.00     0.0330)
 D :1...1            ( 0.00     0.1959)

 CYCLE    6
  SDIIS (wt  0.000):  0.0000 -0.0289 -0.0346  0.4584  0.6050
 A-DIIS (wt  1.000):  0.0000  0.0000  0.0000  0.3111  0.6889
  DIIS coefficients:  0.0000  0.0000  0.0000  0.3111  0.6889
 SCF Error: norm([F,P])=      0.894656609953, max([F,P])=      0.328552344502
 orbitals (Q,E):
 ---------------
 S :1...3            ( 2.00    -6.3109)  ( 2.00    -0.4896)  ( 0.00     0.1210)
 P :1...3            ( 6.00    -4.4823)  ( 3.00    -0.1842)  ( 0.00     0.0870)
 D :1...1            ( 0.00     0.4072)

 CYCLE    7
  SDIIS (wt  0.437):  0.0003 -0.0004 -0.0106 -0.0415  0.1385  0.9137
 A-DIIS (wt  0.563):  0.0000  0.0000  0.0000  0.0000  0.0000  1.0000
  DIIS coefficients:  0.0001 -0.0002 -0.0046 -0.0181  0.0605  0.9623
 SCF Error: norm([F,P])=      0.152753231532, max([F,P])=      0.056768903175
 orbitals (Q,E):
 ---------------
 S :1...3            ( 2.00    -6.4268)  ( 2.00    -0.5264)  ( 0.00     0.1084)
 P :1...3            ( 6.00    -4.6039)  ( 3.00    -0.2126)  ( 0.00     0.0772)
 D :1...1            ( 0.00     0.3702)

 CYCLE    8
  SDIIS (wt  0.777): -0.0000 -0.0007  0.0025  0.0136 -0.0400  0.1180  0.9067
 A-DIIS (wt  0.223):  0.0000  0.0000  0.0000  0.0000  0.0000  0.0410  0.9590
  DIIS coefficients: -0.0000 -0.0005  0.0019  0.0105 -0.0311  0.1008  0.9184
 SCF Error: norm([F,P])=      0.062117061218, max([F,P])=      0.023065151090
 orbitals (Q,E):
 ---------------
 S :1...3            ( 2.00    -6.3871)  ( 2.00    -0.5116)  ( 0.00     0.1144)
 P :1...3            ( 6.00    -4.5623)  ( 3.00    -0.2008)  ( 0.00     0.0809)
 D :1...1            ( 0.00     0.3849)

 CYCLE    9
  SDIIS (wt  0.976):  0.0000  0.0000 -0.0001 -0.0000 -0.0006  0.0067  0.1535  0.8406
 A-DIIS (wt  0.024):  0.0000  0.0000  0.0000  0.0000  0.0000  0.0000  0.0000  1.0000
  DIIS coefficients:  0.0000  0.0000 -0.0001 -0.0000 -0.0006  0.0065  0.1498  0.8445
 SCF Error: norm([F,P])=      0.008957667695, max([F,P])=      0.003406470825
 orbitals (Q,E):
 ---------------
 S :1...3            ( 2.00    -6.3923)  ( 2.00    -0.5136)  ( 0.00     0.1136)
 P :1...3            ( 6.00    -4.5677)  ( 3.00    -0.2024)  ( 0.00     0.0804)
 D :1...1            ( 0.00     0.3830)

 CYCLE   10
  SDIIS (wt  1.000): -0.0000  0.0000 -0.0000 -0.0000  0.0000  0.0002  0.0031  0.0372  0.9595
  DIIS coefficients: -0.0000  0.0000 -0.0000 -0.0000  0.0000  0.0002  0.0031  0.0372  0.9595
 SCF Error: norm([F,P])=      0.000163653333, max([F,P])=      0.000063717608
 orbitals (Q,E):
 ---------------
 S :1...3            ( 2.00    -6.3922)  ( 2.00    -0.5136)  ( 0.00     0.1136)
 P :1...3            ( 6.00    -4.5676)  ( 3.00    -0.2024)  ( 0.00     0.0804)
 D :1...1            ( 0.00     0.3830)

 CYCLE   11
  SDIIS (wt  1.000):  0.0000  0.0000 -0.0000 -0.0002 -0.0016 -0.0226  1.0244
  DIIS coefficients:  0.0000  0.0000 -0.0000 -0.0002 -0.0016 -0.0226  1.0244
 SCF Error: norm([F,P])=      0.000000175567, max([F,P])=      0.000000090743
 orbitals (Q,E):
 ---------------
 S :1...3            ( 2.00    -6.3922)  ( 2.00    -0.5136)  ( 0.00     0.1136)
 P :1...3            ( 6.00    -4.5676)  ( 3.00    -0.2024)  ( 0.00     0.0804)
 D :1...1            ( 0.00     0.3830)

 CYCLE   12
  SDIIS (wt  1.000): -0.0000 -0.0000 -0.0005 -0.0247  1.0252
  DIIS coefficients: -0.0000 -0.0000 -0.0005 -0.0247  1.0252
 SCF Error: norm([F,P])=      0.000000002285, max([F,P])=      0.000000001028
 orbitals (Q,E):
 ---------------
 S :1...3            ( 2.00    -6.3922)  ( 2.00    -0.5136)  ( 0.00     0.1136)
 P :1...3            ( 6.00    -4.5676)  ( 3.00    -0.2024)  ( 0.00     0.0804)
 D :1...1            ( 0.00     0.3830)

 SCF CONVERGED

 CYCLE   13
1
 ***************************************************************************************************



                                                *******************
                                                *  R E S U L T S  *
                                                *******************
  
 *** Using FIT density in Focky
  SDIIS (wt  1.000):  0.0000  0.0017  0.0326  0.9657
  DIIS coefficients:  0.0000  0.0017  0.0326  0.9657
 SCF Error: norm([F,P])=      0.000000000342, max([F,P])=      0.000000000172

 Scaled ZORA Orbital Energies, per Irrep and Spin:
 =================================================
                        Occup              E (au)              E (eV)       Diff (eV) with prev. cycle
                        -----      --------------------        ------       --------------------------
 S
               1        2.000     -0.63922369009056E+01      -173.942               8.75E-09
               2        2.000     -0.51357095789531E+00       -13.975               6.90E-09
               3        0.000      0.11360419341918E+00         3.091
               4        0.000      0.13218598554508E+01        35.970
               5        0.000      0.10430275582036E+02       283.822
 P
               1        6.000     -0.45676340295409E+01      -124.292               8.74E-09
               2        3.000     -0.20235270966723E+00        -5.506               5.88E-09
               3        0.000      0.80400995303665E-01         2.188
               4        0.000      0.71612464912880E+00        19.487
               5        0.000      0.95392466931961E+01       259.576
 D
               1        0.000      0.38299165710671E+00        10.422


 Partially Occupied:
               2 P                -0.20235270966723E+00
  
 HOMO :        2 S                -0.51357095789531E+00
 LUMO :        3 P                 0.80400995303665E-01
  


 Orbital Energies, all Irreps
 ========================================

 Irrep        no.  (spin)   Occup              E (au)                E (eV)
 ---------------------------------------------------------------------------
 S             1             2.00       -0.63922369009056E+01      -173.9416
 P             1             6.00       -0.45676340295409E+01      -124.2916
 S             2             2.00       -0.51357095789531E+00       -13.9750
 P             2             3.00       -0.20235270966723E+00        -5.5063
 P             3             0.00        0.80400995303665E-01         2.1878
 S             3             0.00        0.11360419341918E+00         3.0913
 D             1             0.00        0.38299165710671E+00        10.4217
 P             4             0.00        0.71612464912880E+00        19.4867
 S             4             0.00        0.13218598554508E+01        35.9696
 P             5             0.00        0.95392466931961E+01       259.5761
 S             5             0.00        0.10430275582036E+02       283.8222


 Scaled ZORA Orbital Energies of the Core Orbitals:
 ==================================================

 (Note that the atoms are grouped by atomtype, see the labels, and may hence NOT be in input order)

 AtomType  Orbital  Atom                   E (au)                        E (eV)
 --------  -------  ----           --------------------        ----------------
 P           1S        1          -0.76588588395026E+02               -2084.082



 =======================================
 M U L L I K E N   P O P U L A T I O N S
 =======================================
  
 The survey below gives for each atom:
 a) the total charge (Z minus electrons)
 b) the net spin polarization (nr of electrons spin-A minus spin-B)
 c) for each spin the atomic electron valence density (integrated) per L-value.

 Atom              Charge    Spin density          S         P         D         F
 ----              ------    ------------       ------    ------    ------    ------
 1 P              -0.0000                       4.0000    9.0000    0.0000    0.0000

 Populations of individual BAS functions
 ----------------------------------------
 1 P           -0.0481  1.4990  0.5077  0.7973  0.7973  0.7973  1.2052  1.2052  1.2052  0.3372
                1.0986  0.6057  0.1369  0.1369  0.1369  0.4144  0.4144  0.4144  0.4462  0.4462
                0.4462  0.0000  0.0000  0.0000  0.0000  0.0000  0.0000

 Gross Charges per Atom (Z minus electrons)
 ==========================================
            -0.0000
 Net Total: -0.00000000



 =======================================================================
 Electrostatic potential at the Nuclei due to electrons and other nuclei
 =======================================================================
  
         Atom                  Potential
         ----                  ---------
     1)   P                  54.30955117
 
 
 ========================
 No memory problems found
 ========================
 
 Maximum number of active allocate calls:         389
 
 *******************************************************************************

                             A D F   E X I T
 NORMAL TERMINATION



 =================
 Timing Statistics
 =================
  
 Total Used :                     CPU=        0.59      System=        0.03     Elapsed=        0.66

 Calls  Section                     ( Mean, Percentage )
 ---------------------------------------------------------------------------------------------------
     3  ><      ................      0.00    0.68             0.00    0.00             0.00    0.73
     1  INIT    ................      0.07   11.56             0.00   12.50             0.09   12.91
     1  GEOMET  ................      0.02    2.72             0.00   12.50             0.02    3.74
     1  INPUTA  ................      0.00    0.68             0.00    0.00             0.00    0.54
     1  MAINSY  ................      0.01    1.36             0.00   12.50             0.02    2.30
     1  SYMFIT  ................      0.00    0.00             0.00    0.00             0.00    0.25
     1  CORORT  ................      0.00    0.00             0.00    0.00             0.00    0.23
     1  SYMORB  ................      0.00    0.00             0.00   12.50             0.00    0.14
     1  CLSMAT  ................      0.00    0.68             0.00    0.00             0.01    0.87
     1  ORTHON  ................      0.00    0.68             0.00    0.00             0.01    0.86
     1  GENPT   ................      0.02    3.40             0.00    0.00             0.02    2.88
     1  PTBAS   ................      0.00    0.68             0.00    0.00             0.01    0.78
    13  FOCKY   ................      0.03   63.27             0.00   50.00             0.03   59.91
    13  FOCKTR  ................      0.00    0.68             0.00    0.00             0.00    1.16
    13  SDIIS   ................      0.00    6.12             0.00    0.00             0.00    5.79
     1  COREPS  ................      0.02    4.08             0.00    0.00             0.02    3.68
     1  POPAN   ................      0.00    0.68             0.00    0.00             0.01    0.79
     1  DEBYE   ................      0.00    0.00             0.00    0.00             0.00    0.31
     1  EXIT PROCEDURE .........      0.02    2.72             0.00    0.00             0.01    2.15


 Currently Open Files (EXIT00)
 ====================

 Unit    Access Format  Status   Type       Ident (file)
 -------------------------------------------------------
   3      SEQ    FORM   TRANSP  NORMAL      LOGFILE
                                          ( logfile )

 ***************************************************************************************************
 (LOGFILE)
 <Feb17-2023> <22:21:20>  DIRAC 2019  RunTime: Feb17-2023 22:21:20  Nodes: 1  Procs: 1
 <Feb17-2023> <22:21:20>  NORMAL TERMINATION
 <Feb17-2023> <22:21:20>  END
 <Feb17-2023> <22:21:20>  ADF 2019  RunTime: Feb17-2023 22:21:20  Nodes: 1  Procs: 1
 <Feb17-2023> <22:21:20>  Phosphorus (TZP, 1s frozen)
 <Feb17-2023> <22:21:20>  RunType   : CREATE
 <Feb17-2023> <22:21:20>  Net Charge: 0 (Nuclei minus Electrons)
 <Feb17-2023> <22:21:20>  Symmetry  : ATOM
  Coordinates
    Atom         X           Y           Z   (Angstrom)
    1.P         0.000000    0.000000    0.000000
 <Feb17-2023> <22:21:20>  >>>> CORORT
 <Feb17-2023> <22:21:20>  >>>> CLSMAT
 <Feb17-2023> <22:21:20>  >>>> ORTHON
 <Feb17-2023> <22:21:20>  >>>> GENPT
 <Feb17-2023> <22:21:20>  Block Length=  76
 <Feb17-2023> <22:21:20>  >>>> PTBAS
 <Feb17-2023> <22:21:20>  >>>> CYCLE
 <Feb17-2023> <22:21:20>              |Error|         MaxErr       Wt(A-DIIS)
 <Feb17-2023> <22:21:20>      1      0.00000000      0.00000000
 <Feb17-2023> <22:21:20>      2     18.57419976      5.72946042    100.0
 <Feb17-2023> <22:21:20>      3      7.89224634      2.59295418    100.0
 <Feb17-2023> <22:21:20>      4      4.38717664      1.76162665    100.0
 <Feb17-2023> <22:21:20>      5      1.32434558      0.46695615    100.0
 <Feb17-2023> <22:21:20>      6      0.89465661      0.32855234    100.0
 <Feb17-2023> <22:21:20>      7      0.15275323      0.05676890     56.3
 <Feb17-2023> <22:21:20>      8      0.06211706      0.02306515     22.3
 <Feb17-2023> <22:21:20>      9      0.00895767      0.00340647      2.4
 <Feb17-2023> <22:21:20>     10      0.00016365      0.00006372      0.0
 <Feb17-2023> <22:21:20>     11      0.00000018      0.00000009      0.0
 <Feb17-2023> <22:21:20>     12      0.00000000      0.00000000      0.0
 <Feb17-2023> <22:21:21>  SCF converged
 <Feb17-2023> <22:21:21>     13      0.00000000      0.00000000      0.0
 <Feb17-2023> <22:21:21>  >>>> POPAN
 <Feb17-2023> <22:21:21>  >>>> DEBYE
 <Feb17-2023> <22:21:21>  NORMAL TERMINATION
 <Feb17-2023> <22:21:21>  END

 *******************************************************************************
 *                                                                             *
 *  -------------------------------------                                      *
 *   Amsterdam Density Functional  (ADF)         2019                          *
 *  -------------------------------------                                      *
 *                                               r74351 2019-04-25             *
 *                                                                             *
 *                                                                             *
 *                            =====================                            *
 *                            |                   |                            *
 *                            |     D I R A C     |                            *
 *                            |                   |                            *
 *                            =====================                            *
 *                                                                             *
 *                                                                             *
 *   Online information and documentation:  https://www.scm.com/support/       *
 *   E-mail:  support@scm.com   info@scm.com                                   *
 *                                                                             *
 *   Scientific publications using ADF results must be properly referenced     *
 *   See the User Manuals (or the web site) for recommended citations          *
 *   The terms and conditions of the End User License Agreement apply to       *
 *   the use of ADF, https://www.scm.com/license-terms/                        *
 *                                                                             *
 **********************  x86_64_linux_intel / intelmpi  ************************
 
 Licensed to: Dr. Carles Bo / Institute of Chemical Research of Catalonia ( (ICIQ) / Tarragona / Spain 2022-11-28 14:37:29
 SCM User ID: u7609
  
 DIRAC 2019  RunTime: Feb17-2023 22:21:21  Nodes: 1  Procs: 1

 Temporary files are created in /scratch/kid_0.386627157

1
 MOLYBDENUM ATOM 3d CORE RELATIVISTIC, Point Nuc, A and c fro
 N J RN H ZN XION ANUC CLIGHT
 5000   15100.00000000197.36710137 42.00000000  0.00000000   97.905406  0.1370360E+03
  PH   PHI     EPS        DEL        DELRVR
  0.30  0.30     2500.00  0.00001000  0.00001000
 IDIRC  NC1  NDEBU NPRIN  IPUN IRCOR IWCOR
   1   300     0     0     0     0     9
   XALPHA      XLATTER      RNUC
  0.70000000  0.00000000  0.00000000 Point Charge
   XN   XL   XJ      XE          XZ      XDELL
  1.0  0.0  0.5   -1500.000       2.000     0.00000
  2.0  0.0  0.5    -325.000       2.000     0.00000
  2.0  1.0  0.5    -325.000       2.000     0.00000
  2.0  1.0  1.5    -325.000       4.000     0.00000
  3.0  0.0  0.5     -70.000       2.000     0.00000
  3.0  1.0  0.5     -70.000       2.000     0.00000
  3.0  1.0  1.5     -70.000       4.000     0.00000
  3.0  2.0  1.5     -60.000       4.000     0.00000
  3.0  2.0  2.5     -60.000       6.000     0.00000
  4.0  0.0  0.5     -10.000       2.000     0.00000
  4.0  1.0  0.5     -10.000       2.000     0.00000
  4.0  1.0  1.5     -10.000       4.000     0.00000
  4.0  2.0  1.5      -1.000       4.000     0.00000
  4.0  2.0  2.5      -1.000       1.000     0.00000
  5.0  0.0  0.5      -0.500       1.000     0.00000
 ICORP=  0  NPCL=  0  DEMP=0.00  PEPS=0.000000
 R(1)=  0.1000000E-08 D=  0.1005080E+01 RNUC=  0.0000000E+00
 converged at cycle   41  DENSITY AVERAGING    0.2400
  MAXIMUM ERROR IN R.V(R) IS   0.93203452E-05
 Q,EY,EV,EZ,ESUM,ETOT,RHO  0.420000E+02 -0.161898E+03 -0.662509E+04 -0.978397E+04 -0.242700E+04 -0.404691E+04  0.342495E-11


 DIRAC CALCULATION
1                    MOLYBDENUM ATOM 3d CORE RELATIVISTIC, Point Nuc, A and c from libtc


 EXCHANGE COEFFICIENT=  0.7000000           TAIL CORRECTION=  0.           NUCLEAR RADIUS=  0.000E+00
0                       ORBITAL    N    L    J     ELECTRONS     EIGENVALUE                DELTA OF EIGENV.

                          1S1/2  1.0  0.0  0.5     2.000       -0.7276812E+03                 0.2822496E-04
                          2S1/2  2.0  0.0  0.5     2.000       -0.1028194E+03                 0.1725465E-04
                          2P1/2  2.0  1.0  0.5     2.000       -0.9468016E+02                 0.1864325E-04
                          2P3/2  2.0  1.0  1.5     4.000       -0.9076266E+02                 0.1832345E-04
                          3S1/2  3.0  0.0  0.5     2.000       -0.1747094E+02                 0.5979346E-05
                          3P1/2  3.0  1.0  0.5     2.000       -0.1436574E+02                 0.6275079E-05
                          3P3/2  3.0  1.0  1.5     4.000       -0.1371946E+02                 0.5984426E-05
                          3D3/2  3.0  2.0  1.5     4.000       -0.8203697E+01                 0.6709395E-05
                          3D5/2  3.0  2.0  2.5     6.000       -0.8081013E+01                 0.6610438E-05
                          4S1/2  4.0  0.0  0.5     2.000       -0.2338238E+01                 0.2446887E-06
                          4P1/2  4.0  1.0  0.5     2.000       -0.1452045E+01                 0.2971982E-06
                          4P3/2  4.0  1.0  1.5     4.000       -0.1358936E+01                 0.3186552E-06
                          4D3/2  4.0  2.0  1.5     4.000       -0.1184046E+00                 0.3378248E-06
                          4D5/2  4.0  2.0  2.5     1.000       -0.1108976E+00                 0.3342679E-06
                          5S1/2  5.0  0.0  0.5     1.000       -0.1320069E+00                 0.9757102E-07


                                        NUCLEAR CHARGE=   42.000000
                            INTEGRAL OF CHARGE DENSITY=   42.000000
                           SUM OF THE ORBITAL ENERGIES=  -2426.9970
                                          TOTAL ENERGY=  -4046.9128
                                        KINETIC ENERGY=   4198.0886
                             NUCLEAR ATTRACTION ENERGY=  -9783.9685
                             ELECTRON REPULSION ENERGY=   1660.3903
                                       EXCHANGE ENERGY=   -121.4232

 *******************************************************************************

                             D I R A C   E X I T
 NORMAL TERMINATION



 =================
 Timing Statistics
 =================
  
 Total Used :                     CPU=        0.46      System=        0.00     Elapsed=        0.47

 Calls  Section                     ( Mean, Percentage )
 ---------------------------------------------------------------------------------------------------
     2  ><      ................      0.00    0.00             0.00    0.00             0.00    0.00
     1  EXIT PROCEDURE .........      0.46  100.00             0.00  100.00             0.47  100.00


 Currently Open Files (EXIT00)
 ====================

 Unit    Access Format  Status   Type       Ident (file)
 -------------------------------------------------------
   3      SEQ    FORM   TRANSP  NORMAL      LOGFILE
                                          ( logfile )
 
Create Mo   file=TZP-Mo.3d
XC
  GGA PBE
End
relativistic ZORA
Corepotentials t12.rel
End

 *******************************************************************************
 *                                                                             *
 *  -------------------------------------                                      *
 *   Amsterdam Density Functional  (ADF)         2019                          *
 *  -------------------------------------                                      *
 *                                               r74351 2019-04-25             *
 *                                                                             *
 *                                                                             *
 *                              =================                              *
 *                              |               |                              *
 *                              |     A D F     |                              *
 *                              |               |                              *
 *                              =================                              *
 *                                                                             *
 *                                                                             *
 *   Online information and documentation:  https://www.scm.com/support/       *
 *   E-mail:  support@scm.com   info@scm.com                                   *
 *                                                                             *
 *   Scientific publications using ADF results must be properly referenced     *
 *   See the User Manuals (or the web site) for recommended citations          *
 *   The terms and conditions of the End User License Agreement apply to       *
 *   the use of ADF, https://www.scm.com/license-terms/                        *
 *                                                                             *
 **********************  x86_64_linux_intel / intelmpi  ************************
 
 Licensed to: Dr. Carles Bo / Institute of Chemical Research of Catalonia ( (ICIQ) / Tarragona / Spain 2022-11-28 14:37:29
 SCM User ID: u7609
  
 ADF 2019  RunTime: Feb17-2023 22:21:21  Nodes: 1  Procs: 1

 Temporary files are created in /scratch/kid_0.1513862671

 Molybdenum (TZP, 3d frozen)



 ===========================
 A T T A C H E D   F I L E S
 ===========================
  
 CREATE - Data File:    TZP-Mo.3d
                        Molybdenum (TZP, 3d frozen)
 Core Potentials:
         file : t12.rel



 ===============================
 M O D E L   P A R A M E T E R S
 ===============================
  
 DENSITY FUNCTIONAL POTENTIAL (scf)
    LDA:                               PW92                                    == Not Default ==
    Gradient Corrections:              PBEc PBEx                               == Not Default ==

 SPIN  (restricted / unrestr.)
    Molecule:                          Restricted                               

 OTHER ASPECTS
    Relativistic Corrections:          scalar (ZORA,MAPA)                      == Not Default ==

    Nuclear Charge Density Model:      Point Charge Nuclei                      
    Core Treatment:                    Frozen Orbital(s)                        

    Hyperfine or Zeeman Interaction:   ---                                      



 =====================================
 S Y M M E T R Y ,   E L E C T R O N S
 =====================================
  
 Symmetry: ATOM

 Irreducible Representations, including subspecies
 -------------------------------------------------
 S
 P:x  P:y  P:z
 D:z2  D:x2-y2  D:xy  D:xz  D:yz
 F:z3  F:z  F:xyz  F:z2x  F:z2y  F:x  F:y


 Configuration of Valence Electrons
 ==================================

          Occupation Numbers
          -------------------------------------------------
 S        2 1
 P        6
 D        5
 F        0
          -------------------------------------------------

 Total:   14

 Net Charge: 0 (Nuclei minus Electrons)

 Preset values for MO occupations will be applied through SCF cycle no. 1000000
 Thereafter, the program will assign electrons to MOs that are spatially
 similar to the occupied MOs in a "reference" cycle ("KeepOrbitals").
 The reference cycle is always the PREVIOUS cycle: it will evolve with
 the SCF procedure.



 ================================
 (Slater-type)  F U N C T I O N S  ***  (Basis and Fit)  ***
 ================================
  

 Atom Type    1  (Mo)
 ==============

 Valence Basis Sets:  18
 -----------------------
   1 S   30.500000
   2 S   17.750000
   3 S    8.350000
   2 P   18.600000
   3 P    8.700000
   3 D   10.050000
   4 S    5.100000
   4 S    3.300000
   5 S    2.150000
   5 S    1.350000
   5 S    0.870000
   4 P    4.950000
   4 P    3.300000
   4 P    2.300000
   4 D    3.500000
   4 D    1.850000
   4 D    0.970000
   5 P    1.350000

 Frozen Core Shells
 ------------------
    S:  3
    P:  2
    D:  1


 BAS: List of all Elementary Cartesian Basis Functions
 =====================================================

 The numbering in the list below (to the right of the function characteristics) is referred
 to in print-outs of MO eigenvectors and Mulliken populations in the BAS representation
 (as contrasted to the SFO representation).

 Notes:
 1. The functions are characterized by a polynomial prefactor (powers of x,y,z and r) and
    an exponential decay factor alpha.
 2. Since the basis sets are specific for an atom TYPE, the individual functions occur on
    all atoms of that type.
 3. The word 'Core' in the left margin signals that it is a Core Function (CF) : not a
    degree of freedom in the valence set, but only used to ensure orthogonalization of
    the other valence basis functions on the frozen Core Orbitals.


 (power of) X  Y  Z  R     Alpha  on Atom
            ==========     =====     ==========

 Mo                                   1
                                  ---------------------------------------------------------------------------
    Core    0  0  0  0    30.500      1
    Core    0  0  0  1    17.750      2
    Core    0  0  0  2     8.350      3
    Core    1  0  0  0    18.600      4
    Core    0  1  0  0    18.600      5
    Core    0  0  1  0    18.600      6
    Core    1  0  0  1     8.700      7
    Core    0  1  0  1     8.700      8
    Core    0  0  1  1     8.700      9
    Core    2  0  0  0    10.050     10
    Core    1  1  0  0    10.050     11
    Core    1  0  1  0    10.050     12
    Core    0  2  0  0    10.050     13
    Core    0  1  1  0    10.050     14
    Core    0  0  2  0    10.050     15
            0  0  0  3     5.100     16
            0  0  0  3     3.300     17
            0  0  0  4     2.150     18
            0  0  0  4     1.350     19
            0  0  0  4     0.870     20
            1  0  0  2     4.950     21
            0  1  0  2     4.950     22
            0  0  1  2     4.950     23
            1  0  0  2     3.300     24
            0  1  0  2     3.300     25
            0  0  1  2     3.300     26
            1  0  0  2     2.300     27
            0  1  0  2     2.300     28
            0  0  1  2     2.300     29
            2  0  0  1     3.500     30
            1  1  0  1     3.500     31
            1  0  1  1     3.500     32
            0  2  0  1     3.500     33
            0  1  1  1     3.500     34
            0  0  2  1     3.500     35
            2  0  0  1     1.850     36
            1  1  0  1     1.850     37
            1  0  1  1     1.850     38
            0  2  0  1     1.850     39
            0  1  1  1     1.850     40
            0  0  2  1     1.850     41
            2  0  0  1     0.970     42
            1  1  0  1     0.970     43
            1  0  1  1     0.970     44
            0  2  0  1     0.970     45
            0  1  1  1     0.970     46
            0  0  2  1     0.970     47
            1  0  0  3     1.350     48
            0  1  0  3     1.350     49
            0  0  1  3     1.350     50

 Total number of charge fitting functions (nprimf)       230
 Total number of Cartesian basis functions (naos)         50
 Total number of Cartesian core functions  (ncos)         15



 BAS: List of all Elementary Cartesian Basis Functions
 =====================================================

 The numbering in the list below (to the right of the function characteristics) is referred
 to in print-outs of MO eigenvectors and Mulliken populations in the BAS representation
 (as contrasted to the SFO representation).

 Notes:
 1. The functions are characterized by a polynomial prefactor (powers of x,y,z and r) and
    an exponential decay factor alpha.
 2. Since the basis sets are specific for an atom TYPE, the individual functions occur on
    all atoms of that type.
 3. The word 'Core' in the left margin signals that it is a Core Function (CF) : not a
    degree of freedom in the valence set, but only used to ensure orthogonalization of
    the other valence basis functions on the frozen Core Orbitals.


 (power of) X  Y  Z  R     Alpha  on Atom
            ==========     =====     ==========

 Mo                                   1
                                  ---------------------------------------------------------------------------
    Core    0  0  0  0    30.500      1
    Core    0  0  0  1    17.750      2
    Core    0  0  0  2     8.350      3
    Core    1  0  0  0    18.600      4
    Core    0  1  0  0    18.600      5
    Core    0  0  1  0    18.600      6
    Core    1  0  0  1     8.700      7
    Core    0  1  0  1     8.700      8
    Core    0  0  1  1     8.700      9
    Core    2  0  0  0    10.050     10
    Core    1  1  0  0    10.050     11
    Core    1  0  1  0    10.050     12
    Core    0  2  0  0    10.050     13
    Core    0  1  1  0    10.050     14
    Core    0  0  2  0    10.050     15
            0  0  0  3     5.100     16
            0  0  0  3     3.300     17
            0  0  0  4     2.150     18
            0  0  0  4     1.350     19
            0  0  0  4     0.870     20
            1  0  0  2     4.950     21
            0  1  0  2     4.950     22
            0  0  1  2     4.950     23
            1  0  0  2     3.300     24
            0  1  0  2     3.300     25
            0  0  1  2     3.300     26
            1  0  0  2     2.300     27
            0  1  0  2     2.300     28
            0  0  1  2     2.300     29
            2  0  0  1     3.500     30
            1  1  0  1     3.500     31
            1  0  1  1     3.500     32
            0  2  0  1     3.500     33
            0  1  1  1     3.500     34
            0  0  2  1     3.500     35
            2  0  0  1     1.850     36
            1  1  0  1     1.850     37
            1  0  1  1     1.850     38
            0  2  0  1     1.850     39
            0  1  1  1     1.850     40
            0  0  2  1     1.850     41
            2  0  0  1     0.970     42
            1  1  0  1     0.970     43
            1  0  1  1     0.970     44
            0  2  0  1     0.970     45
            0  1  1  1     0.970     46
            0  0  2  1     0.970     47
            1  0  0  3     1.350     48
            0  1  0  3     1.350     49
            0  0  1  3     1.350     50
1
 ***************************************************************************************************



                                              ***********************
                                              *  T E C H N I C A L  *
                                              ***********************
  



 =============================================================
 P A R A L L E L I Z A T I O N  and  V E C T O R I Z A T I O N
 =============================================================
  
 Nr of parallel processes:                                1
 Maximum vector length in NumInt loops:                 128



 =====================
 S C F   U P D A T E S
 =====================
  
 Max. nr. of cycles:                               300
 Convergence criterion:                              0.0000000100
   secondary criterion:                              0.0000000100

 Mix parameter (when DIIS does not apply):           0.2000000000
 Special mix parameter for the first cycle:          1.0000000000
 Mixed ADIIS+SDIIS will be used                  
    Max number of expansion vectors:                10
    Pure ADIIS when Max([F,P]) is above              0.1000000000
    Pure SDIIS when Max([F,P]) is below              0.0010000000
 Automatic ElectronSmearing (in case of problematic SCF convergence) disabled



 =================
 P R E C I S I O N  ***  (General: NumInt, NeglectFunctionTails, ...)  ***
 =================
  

 NumInt:           Target precision:                12.0000000000
 -------           Initial precision:               10.0000000000
                   Min. precision (optimization):   10.0000000000

 Neglect Functions:          Basis functions:        0.1000000000E-13
 ------------------          Fit functions:          0.1000000000E-13



 ===========================
 L I N E A R   S C A L I N G
 ===========================
  

 Cut-off radii density fit:                        0.1000000000E-97
 Overlap cut-off criterion AO matrix elements:     0.1000000000E-97
 Cut-offs for Coulomb potential and fitted density:0.1000000000E-97
 Cut-off criterion for Coulomb multipole terms:    0.1000000000E-97
 Progressive Convergence parameter:                 0.000000000    
1
 ***************************************************************************************************



                                            ***************************
                                            *  C O M P U T A T I O N  *
                                            ***************************
  

 Number of elements of the density matrix on this node (used, total):      1275      1275



 ===========================================
 Numerical Integration : Fuzzy Cells (Becke)
 ===========================================
  
 Becke grid quality: VERYGOOD       
  
 Lebedev angular grid order:             min:  13 max:  41
 Nr. of radial points:                   min: 106 max: 106

 Total nr. of points:        106
 Nr. of blocks:                1
 Block length:               106
 Nr. of dummy points:          0


 Test of Precision of the Numerical Integration Grid
 ===================================================

 Integral of the Total Core Density:                  28.00000000969493
 Relative Error:                                       3.462E-10



 ========================
 Density Fitting (zlmFit)
 ========================
  
 ZlmFit Fit Quality: VERYGOOD       
  
 Max L-expansion:                        min:   0 max:   0
 Nr. of radial interpolation points:     min: 230 max: 230



 =====
 S C F  ***  ScaSCF  ***
 =====
  

 CYCLE    1
 SCF Error: norm([F,P])=      0.000000000000, max([F,P])=      0.000000000000
 orbitals (Q,E):
 ---------------
 S :1...5            ( 2.00   -11.6814)  ( 1.00    -6.3532)  ( 0.00    -3.9976)  ( 0.00    -2.6589)
                     ( 0.00    -1.7000)
 P :1...4            ( 6.00   -10.5018)  ( 0.00    -5.8212)  ( 0.00    -3.6400)  ( 0.00    -2.5070)
 D :1...3            ( 5.00    -8.4786)  ( 0.00    -4.5701)  ( 0.00    -2.4939)

 CYCLE    2
  SDIIS (wt  0.000):  1.0000  0.0000
 A-DIIS (wt  1.000):  0.1286  0.8714
  DIIS coefficients:  0.1286  0.8714
 SCF Error: norm([F,P])=      7.148790686087, max([F,P])=      2.364314963741
 orbitals (Q,E):
 ---------------
 S :1...3            ( 2.00    -1.8793)  ( 1.00    -0.4080)  ( 0.00    -0.1761)
 P :1...2            ( 6.00    -1.0989)  ( 0.00    -0.2723)
 D :1...2            ( 5.00    -0.2758)  ( 0.00    -0.0263)

 CYCLE    3
  SDIIS (wt  0.000):  0.3519  0.6481
 A-DIIS (wt  1.000):  0.2376  0.7624
  DIIS coefficients:  0.2376  0.7624
 SCF Error: norm([F,P])=      4.212278243430, max([F,P])=      1.568530983970
 orbitals (Q,E):
 ---------------
 S :1...3            ( 2.00    -3.0898)  ( 1.00    -0.3551)  ( 0.00    -0.0106)
 P :1...2            ( 6.00    -2.0988)  ( 0.00    -0.1560)
 D :1...2            ( 5.00    -0.6568)  ( 0.00     0.0486)

 CYCLE    4
  SDIIS (wt  0.000): -0.0802  0.2380  0.8422
 A-DIIS (wt  1.000):  0.0000  0.2131  0.7869
  DIIS coefficients:  0.0000  0.2131  0.7869
 SCF Error: norm([F,P])=      1.823310320672, max([F,P])=      0.621470068658
 orbitals (Q,E):
 ---------------
 S :1...3            ( 2.00    -2.1329)  ( 1.00    -0.1098)  ( 0.00     0.0530)
 P :1...2            ( 6.00    -1.2112)  ( 0.00     0.0122)
 D :1...2            ( 5.00    -0.0245)  ( 0.00     0.1765)

 CYCLE    5
  SDIIS (wt  0.000): -0.0246 -0.0857  0.3373  0.7730
 A-DIIS (wt  1.000):  0.0000  0.0000  0.3000  0.7000
  DIIS coefficients:  0.0000  0.0000  0.3000  0.7000
 SCF Error: norm([F,P])=      1.058828219057, max([F,P])=      0.362553371378
 orbitals (Q,E):
 ---------------
 S :1...3            ( 2.00    -2.5065)  ( 1.00    -0.1954)  ( 0.00     0.0191)
 P :1...2            ( 6.00    -1.5530)  ( 0.00    -0.0541)
 D :1...2            ( 5.00    -0.2373)  ( 0.00     0.1039)

 CYCLE    6
  SDIIS (wt  0.000):  0.0107 -0.0168 -0.1404  0.2233  0.9231
 A-DIIS (wt  1.000):  0.0000  0.0000  0.0000  0.1685  0.8315
  DIIS coefficients:  0.0000  0.0000  0.0000  0.1685  0.8315
 SCF Error: norm([F,P])=      0.386302370665, max([F,P])=      0.125926487743
 orbitals (Q,E):
 ---------------
 S :1...3            ( 2.00    -2.2911)  ( 1.00    -0.1348)  ( 0.00     0.0380)
 P :1...2            ( 6.00    -1.3509)  ( 0.00    -0.0079)
 D :1...2            ( 5.00    -0.0948)  ( 0.00     0.1449)

 CYCLE    7
  SDIIS (wt  0.044): -0.0008  0.0043  0.0172 -0.1816  0.1952  0.9657
 A-DIIS (wt  0.956):  0.0000  0.0000  0.0000  0.0000  0.3526  0.6474
  DIIS coefficients: -0.0000  0.0002  0.0008 -0.0081  0.3456  0.6615
 SCF Error: norm([F,P])=      0.284734623559, max([F,P])=      0.095612429384
 orbitals (Q,E):
 ---------------
 S :1...3            ( 2.00    -2.3844)  ( 1.00    -0.1556)  ( 0.00     0.0295)
 P :1...2            ( 6.00    -1.4366)  ( 0.00    -0.0239)
 D :1...2            ( 5.00    -0.1494)  ( 0.00     0.1281)

 CYCLE    8
  SDIIS (wt  0.772):  0.0000  0.0002 -0.0034 -0.0193  0.0076  0.2482  0.7667
 A-DIIS (wt  0.228):  0.0000  0.0000  0.0000  0.0000  0.0000  0.0289  0.9711
  DIIS coefficients:  0.0000  0.0002 -0.0026 -0.0149  0.0058  0.1982  0.8133
 SCF Error: norm([F,P])=      0.070427042512, max([F,P])=      0.023581757016
 orbitals (Q,E):
 ---------------
 S :1...3            ( 2.00    -2.3580)  ( 1.00    -0.1494)  ( 0.00     0.0311)
 P :1...2            ( 6.00    -1.4122)  ( 0.00    -0.0192)
 D :1...2            ( 5.00    -0.1332)  ( 0.00     0.1325)

 CYCLE    9
  SDIIS (wt  0.929): -0.0000 -0.0000  0.0002  0.0020 -0.0040 -0.0349  0.1906  0.8461
 A-DIIS (wt  0.071):  0.0000  0.0000  0.0000  0.0000  0.0000  0.0000  0.1077  0.8923
  DIIS coefficients: -0.0000 -0.0000  0.0002  0.0018 -0.0037 -0.0324  0.1847  0.8494
 SCF Error: norm([F,P])=      0.024021634807, max([F,P])=      0.008070140854
 orbitals (Q,E):
 ---------------
 S :1...3            ( 2.00    -2.3650)  ( 1.00    -0.1511)  ( 0.00     0.0305)
 P :1...2            ( 6.00    -1.4187)  ( 0.00    -0.0205)
 D :1...2            ( 5.00    -0.1375)  ( 0.00     0.1313)

 CYCLE   10
  SDIIS (wt  1.000):  0.0000  0.0000 -0.0000 -0.0003  0.0006  0.0038 -0.0155  1.0114
  DIIS coefficients:  0.0000  0.0000 -0.0000 -0.0003  0.0006  0.0038 -0.0155  1.0114
 SCF Error: norm([F,P])=      0.001691537232, max([F,P])=      0.000569379855
 orbitals (Q,E):
 ---------------
 S :1...3            ( 2.00    -2.3645)  ( 1.00    -0.1510)  ( 0.00     0.0305)
 P :1...2            ( 6.00    -1.4182)  ( 0.00    -0.0204)
 D :1...2            ( 5.00    -0.1372)  ( 0.00     0.1314)

 CYCLE   11
  SDIIS (wt  1.000):  0.0000 -0.0000  0.0000  0.0002 -0.0008 -0.0102 -0.0868  1.0976
  DIIS coefficients:  0.0000 -0.0000  0.0000  0.0002 -0.0008 -0.0102 -0.0868  1.0976
 SCF Error: norm([F,P])=      0.000000816018, max([F,P])=      0.000000266639
 orbitals (Q,E):
 ---------------
 S :1...3            ( 2.00    -2.3645)  ( 1.00    -0.1510)  ( 0.00     0.0305)
 P :1...2            ( 6.00    -1.4182)  ( 0.00    -0.0204)
 D :1...2            ( 5.00    -0.1372)  ( 0.00     0.1314)

 CYCLE   12
  SDIIS (wt  1.000): -0.0000  0.0000  0.0001  0.0011  0.0118  0.9869
  DIIS coefficients: -0.0000  0.0000  0.0001  0.0011  0.0118  0.9869
 SCF Error: norm([F,P])=      0.000000024268, max([F,P])=      0.000000008564
 orbitals (Q,E):
 ---------------
 S :1...3            ( 2.00    -2.3645)  ( 1.00    -0.1510)  ( 0.00     0.0305)
 P :1...2            ( 6.00    -1.4182)  ( 0.00    -0.0204)
 D :1...2            ( 5.00    -0.1372)  ( 0.00     0.1314)

 SCF CONVERGED

 CYCLE   13
1
 ***************************************************************************************************



                                                *******************
                                                *  R E S U L T S  *
                                                *******************
  
 *** Using FIT density in Focky
  SDIIS (wt  1.000):  0.0000  0.0000 -0.0009 -0.0131  1.0139
  DIIS coefficients:  0.0000  0.0000 -0.0009 -0.0131  1.0139
 SCF Error: norm([F,P])=      0.000000001716, max([F,P])=      0.000000000646

 Scaled ZORA Orbital Energies, per Irrep and Spin:
 =================================================
                        Occup              E (au)              E (eV)       Diff (eV) with prev. cycle
                        -----      --------------------        ------       --------------------------
 S
               1        2.000     -0.23645412461087E+01       -64.342               1.08E-08
               2        1.000     -0.15095063251582E+00        -4.108               1.52E-08
               3        0.000      0.30491108737404E-01         0.830
               4        0.000      0.39955981712578E+00        10.873
               5        0.000      0.28259043504195E+01        76.897
 P
               1        6.000     -0.14182481541156E+01       -38.592               1.24E-08
               2        0.000     -0.20381990593673E-01        -0.555
               3        0.000      0.61122831684606E+00        16.632
               4        0.000      0.40294008516846E+01       109.646
 D
               1        5.000     -0.13719857998971E+00        -3.733               1.57E-08
               2        0.000      0.13138303481334E+00         3.575
               3        0.000      0.10915573963069E+01        29.703


 Partially Occupied:
               2 S                -0.15095063251582E+00
               1 D                -0.13719857998971E+00
  
 HOMO :        1 P                -0.14182481541156E+01
 LUMO :        2 P                -0.20381990593673E-01
  


 Orbital Energies, all Irreps
 ========================================

 Irrep        no.  (spin)   Occup              E (au)                E (eV)
 ---------------------------------------------------------------------------
 S             1             2.00       -0.23645412461087E+01       -64.3424
 P             1             6.00       -0.14182481541156E+01       -38.5925
 S             2             1.00       -0.15095063251582E+00        -4.1076
 D             1             5.00       -0.13719857998971E+00        -3.7334
 P             2             0.00       -0.20381990593673E-01        -0.5546
 S             3             0.00        0.30491108737404E-01         0.8297
 D             2             0.00        0.13138303481334E+00         3.5751
 S             4             0.00        0.39955981712578E+00        10.8726
 P             3             0.00        0.61122831684606E+00        16.6324
 D             3             0.00        0.10915573963069E+01        29.7028
 S             5             0.00        0.28259043504195E+01        76.8968
 P             4             0.00        0.40294008516846E+01       109.6456


 Scaled ZORA Orbital Energies of the Core Orbitals:
 ==================================================

 (Note that the atoms are grouped by atomtype, see the labels, and may hence NOT be in input order)

 AtomType  Orbital  Atom                   E (au)                        E (eV)
 --------  -------  ----           --------------------        ----------------
 Mo          1S        1          -0.72810156987753E+03              -19812.652
             2S        1          -0.10281078869890E+03               -2797.624
             3S        1          -0.17490063510859E+02                -475.929
             2P        1          -0.91890973277880E+02               -2500.481
             3P        1          -0.13936907885645E+02                -379.243
             3D        1          -0.81284558211672E+01                -221.187



 =======================================
 M U L L I K E N   P O P U L A T I O N S
 =======================================
  
 The survey below gives for each atom:
 a) the total charge (Z minus electrons)
 b) the net spin polarization (nr of electrons spin-A minus spin-B)
 c) for each spin the atomic electron valence density (integrated) per L-value.

 Atom              Charge    Spin density          S         P         D         F
 ----              ------    ------------       ------    ------    ------    ------
 1 Mo              0.0000                       3.0000    6.0000    5.0000    0.0000

 Populations of individual BAS functions
 ----------------------------------------
 1 Mo          -0.0051  0.0033 -0.0315  0.0008  0.0008  0.0008  0.0345  0.0345  0.0345  0.0153
                0.0230  0.0230  0.0153  0.0230  0.0153  1.3114  0.7310  0.3903  0.5032  0.0973
                0.7293  0.7293  0.7293  1.1024  1.1024  1.1024  0.1310  0.1310  0.1310  0.2744
                0.4116  0.4116  0.2744  0.4116  0.2744  0.3155  0.4732  0.4732  0.3155  0.4732
                0.3155  0.0615  0.0922  0.0922  0.0615  0.0922  0.0615  0.0019  0.0019  0.0019

 Gross Charges per Atom (Z minus electrons)
 ==========================================
             0.0000
 Net Total:  0.00000000



 =======================================================================
 Electrostatic potential at the Nuclei due to electrons and other nuclei
 =======================================================================
  
         Atom                  Potential
         ----                  ---------
     1)   Mo                232.78835403
 
 
 ========================
 No memory problems found
 ========================
 
 Maximum number of active allocate calls:         389
 
 *******************************************************************************

                             A D F   E X I T
 NORMAL TERMINATION



 =================
 Timing Statistics
 =================
  
 Total Used :                     CPU=        0.76      System=        0.01     Elapsed=        0.81

 Calls  Section                     ( Mean, Percentage )
 ---------------------------------------------------------------------------------------------------
     3  ><      ................      0.00    1.05             0.00    0.00             0.00    0.61
     1  INIT    ................      0.06    8.42             0.01   66.67             0.08    9.39
     1  GEOMET  ................      0.02    2.11             0.00   33.33             0.03    3.29
     1  INPUTA  ................      0.00    0.53             0.00    0.00             0.00    0.47
     1  MAINSY  ................      0.02    2.11             0.00    0.00             0.02    2.60
     1  SYMFIT  ................      0.00    0.00             0.00    0.00             0.00    0.20
     1  CORORT  ................      0.00    0.00             0.00    0.00             0.00    0.23
     1  SYMORB  ................      0.00    0.00             0.00    0.00             0.00    0.11
     1  CLSMAT  ................      0.01    1.05             0.00    0.00             0.01    0.71
     1  ORTHON  ................      0.00    0.53             0.00    0.00             0.01    0.70
     1  GENPT   ................      0.02    3.16             0.00    0.00             0.02    2.95
     1  PTBAS   ................      0.00    0.53             0.00    0.00             0.01    0.69
    13  FOCKY   ................      0.04   68.42             0.00    0.00             0.04   64.84
    13  FOCKTR  ................      0.00    1.58             0.00    0.00             0.00    0.98
    13  SDIIS   ................      0.00    2.63             0.00    0.00             0.00    4.73
     1  COREPS  ................      0.04    5.26             0.00    0.00             0.04    4.61
     1  POPAN   ................      0.00    0.53             0.00    0.00             0.01    0.68
     1  DEBYE   ................      0.00    0.00             0.00    0.00             0.00    0.27
     1  EXIT PROCEDURE .........      0.02    2.11             0.00    0.00             0.02    1.95


 Currently Open Files (EXIT00)
 ====================

 Unit    Access Format  Status   Type       Ident (file)
 -------------------------------------------------------
   3      SEQ    FORM   TRANSP  NORMAL      LOGFILE
                                          ( logfile )

 ***************************************************************************************************
 (LOGFILE)
 <Feb17-2023> <22:21:20>  DIRAC 2019  RunTime: Feb17-2023 22:21:20  Nodes: 1  Procs: 1
 <Feb17-2023> <22:21:20>  NORMAL TERMINATION
 <Feb17-2023> <22:21:20>  END
 <Feb17-2023> <22:21:20>  ADF 2019  RunTime: Feb17-2023 22:21:20  Nodes: 1  Procs: 1
 <Feb17-2023> <22:21:20>  Phosphorus (TZP, 1s frozen)
 <Feb17-2023> <22:21:20>  RunType   : CREATE
 <Feb17-2023> <22:21:20>  Net Charge: 0 (Nuclei minus Electrons)
 <Feb17-2023> <22:21:20>  Symmetry  : ATOM
  Coordinates
    Atom         X           Y           Z   (Angstrom)
    1.P         0.000000    0.000000    0.000000
 <Feb17-2023> <22:21:20>  >>>> CORORT
 <Feb17-2023> <22:21:20>  >>>> CLSMAT
 <Feb17-2023> <22:21:20>  >>>> ORTHON
 <Feb17-2023> <22:21:20>  >>>> GENPT
 <Feb17-2023> <22:21:20>  Block Length=  76
 <Feb17-2023> <22:21:20>  >>>> PTBAS
 <Feb17-2023> <22:21:20>  >>>> CYCLE
 <Feb17-2023> <22:21:20>              |Error|         MaxErr       Wt(A-DIIS)
 <Feb17-2023> <22:21:20>      1      0.00000000      0.00000000
 <Feb17-2023> <22:21:20>      2     18.57419976      5.72946042    100.0
 <Feb17-2023> <22:21:20>      3      7.89224634      2.59295418    100.0
 <Feb17-2023> <22:21:20>      4      4.38717664      1.76162665    100.0
 <Feb17-2023> <22:21:20>      5      1.32434558      0.46695615    100.0
 <Feb17-2023> <22:21:20>      6      0.89465661      0.32855234    100.0
 <Feb17-2023> <22:21:20>      7      0.15275323      0.05676890     56.3
 <Feb17-2023> <22:21:20>      8      0.06211706      0.02306515     22.3
 <Feb17-2023> <22:21:20>      9      0.00895767      0.00340647      2.4
 <Feb17-2023> <22:21:20>     10      0.00016365      0.00006372      0.0
 <Feb17-2023> <22:21:20>     11      0.00000018      0.00000009      0.0
 <Feb17-2023> <22:21:20>     12      0.00000000      0.00000000      0.0
 <Feb17-2023> <22:21:21>  SCF converged
 <Feb17-2023> <22:21:21>     13      0.00000000      0.00000000      0.0
 <Feb17-2023> <22:21:21>  >>>> POPAN
 <Feb17-2023> <22:21:21>  >>>> DEBYE
 <Feb17-2023> <22:21:21>  NORMAL TERMINATION
 <Feb17-2023> <22:21:21>  END
 <Feb17-2023> <22:21:21>  DIRAC 2019  RunTime: Feb17-2023 22:21:21  Nodes: 1  Procs: 1
 <Feb17-2023> <22:21:21>  NORMAL TERMINATION
 <Feb17-2023> <22:21:21>  END
 <Feb17-2023> <22:21:21>  ADF 2019  RunTime: Feb17-2023 22:21:21  Nodes: 1  Procs: 1
 <Feb17-2023> <22:21:21>  Molybdenum (TZP, 3d frozen)
 <Feb17-2023> <22:21:21>  RunType   : CREATE
 <Feb17-2023> <22:21:21>  Net Charge: 0 (Nuclei minus Electrons)
 <Feb17-2023> <22:21:21>  Symmetry  : ATOM
  Coordinates
    Atom         X           Y           Z   (Angstrom)
    1.Mo        0.000000    0.000000    0.000000
 <Feb17-2023> <22:21:21>  >>>> CORORT
 <Feb17-2023> <22:21:21>  >>>> CLSMAT
 <Feb17-2023> <22:21:21>  >>>> ORTHON
 <Feb17-2023> <22:21:21>  >>>> GENPT
 <Feb17-2023> <22:21:21>  Block Length= 106
 <Feb17-2023> <22:21:21>  >>>> PTBAS
 <Feb17-2023> <22:21:21>  >>>> CYCLE
 <Feb17-2023> <22:21:22>              |Error|         MaxErr       Wt(A-DIIS)
 <Feb17-2023> <22:21:22>      1      0.00000000      0.00000000
 <Feb17-2023> <22:21:22>      2      7.14879069      2.36431496    100.0
 <Feb17-2023> <22:21:22>      3      4.21227824      1.56853098    100.0
 <Feb17-2023> <22:21:22>      4      1.82331032      0.62147007    100.0
 <Feb17-2023> <22:21:22>      5      1.05882822      0.36255337    100.0
 <Feb17-2023> <22:21:22>      6      0.38630237      0.12592649    100.0
 <Feb17-2023> <22:21:22>      7      0.28473462      0.09561243     95.6
 <Feb17-2023> <22:21:22>      8      0.07042704      0.02358176     22.8
 <Feb17-2023> <22:21:22>      9      0.02402163      0.00807014      7.1
 <Feb17-2023> <22:21:22>     10      0.00169154      0.00056938      0.0
 <Feb17-2023> <22:21:22>     11      0.00000082      0.00000027      0.0
 <Feb17-2023> <22:21:22>     12      0.00000002      0.00000001      0.0
 <Feb17-2023> <22:21:22>  SCF converged
 <Feb17-2023> <22:21:22>     13      0.00000000      0.00000000      0.0
 <Feb17-2023> <22:21:22>  >>>> POPAN
 <Feb17-2023> <22:21:22>  >>>> DEBYE
 <Feb17-2023> <22:21:22>  NORMAL TERMINATION
 <Feb17-2023> <22:21:22>  END

 *******************************************************************************
 *                                                                             *
 *  -------------------------------------                                      *
 *   Amsterdam Density Functional  (ADF)         2019                          *
 *  -------------------------------------                                      *
 *                                               r74351 2019-04-25             *
 *                                                                             *
 *                                                                             *
 *                            =====================                            *
 *                            |                   |                            *
 *                            |     D I R A C     |                            *
 *                            |                   |                            *
 *                            =====================                            *
 *                                                                             *
 *                                                                             *
 *   Online information and documentation:  https://www.scm.com/support/       *
 *   E-mail:  support@scm.com   info@scm.com                                   *
 *                                                                             *
 *   Scientific publications using ADF results must be properly referenced     *
 *   See the User Manuals (or the web site) for recommended citations          *
 *   The terms and conditions of the End User License Agreement apply to       *
 *   the use of ADF, https://www.scm.com/license-terms/                        *
 *                                                                             *
 **********************  x86_64_linux_intel / intelmpi  ************************
 
 Licensed to: Dr. Carles Bo / Institute of Chemical Research of Catalonia ( (ICIQ) / Tarragona / Spain 2022-11-28 14:37:29
 SCM User ID: u7609
  
 DIRAC 2019  RunTime: Feb17-2023 22:21:22  Nodes: 1  Procs: 1

 Temporary files are created in /scratch/kid_0.688407096

1
 OXYGEN ATOM 1s CORE RELATIVISTIC, Point Nuc, A and c from li
 N J RN H ZN XION ANUC CLIGHT
 5000    4100.00000000197.36710137  8.00000000  0.00000000   15.994914  0.1370360E+03
  PH   PHI     EPS        DEL        DELRVR
  0.30  0.30     2500.00  0.00001000  0.00001000
 IDIRC  NC1  NDEBU NPRIN  IPUN IRCOR IWCOR
   1   300     0     0     0     0     1
   XALPHA      XLATTER      RNUC
  0.70000000  0.00000000  0.00000000 Point Charge
   XN   XL   XJ      XE          XZ      XDELL
  1.0  0.0  0.5      -5.000       2.000     0.00000
  2.0  0.0  0.5      -1.000       2.000     0.00000
  2.0  1.0  0.5      -1.000       2.000     0.00000
  2.0  1.0  1.5      -1.000       2.000     0.00000
 ICORP=  0  NPCL=  0  DEMP=0.00  PEPS=0.000000
 R(1)=  0.1000000E-08 D=  0.1005080E+01 RNUC=  0.0000000E+00
 converged at cycle   28  DENSITY AVERAGING    0.2400
  MAXIMUM ERROR IN R.V(R) IS   0.81125670E-05
 Q,EY,EV,EZ,ESUM,ETOT,RHO  0.800000E+01 -0.101247E+02 -0.114961E+03 -0.177573E+03 -0.405053E+02 -0.743427E+02  0.414766E-14


 DIRAC CALCULATION
1                    OXYGEN ATOM 1s CORE RELATIVISTIC, Point Nuc, A and c from libtc


 EXCHANGE COEFFICIENT=  0.7000000           TAIL CORRECTION=  0.           NUCLEAR RADIUS=  0.000E+00
0                       ORBITAL    N    L    J     ELECTRONS     EIGENVALUE                DELTA OF EIGENV.

                          1S1/2  1.0  0.0  0.5     2.000       -0.1880014E+02                 0.7264358E-06
                          2S1/2  2.0  0.0  0.5     2.000       -0.8412236E+00                 0.5932752E-05
                          2P1/2  2.0  1.0  0.5     2.000       -0.3063203E+00                 0.5998471E-05
                          2P3/2  2.0  1.0  1.5     2.000       -0.3049609E+00                 0.5986971E-05


                                        NUCLEAR CHARGE=    8.000000
                            INTEGRAL OF CHARGE DENSITY=    8.000000
                           SUM OF THE ORBITAL ENERGIES=    -40.5053
                                          TOTAL ENERGY=    -74.3427
                                        KINETIC ENERGY=     74.4552
                             NUCLEAR ATTRACTION ENERGY=   -177.5730
                             ELECTRON REPULSION ENERGY=     36.3686
[...]
 <Feb17-2023> <22:45:21>  gradient max                        0.00228474
 <Feb17-2023> <22:45:21>  gradient rms                        0.00052311
 <Feb17-2023> <22:45:21>  cart. step max                      0.00632521     0.01000000    T
 <Feb17-2023> <22:45:21>  cart. step rms                      0.00224578     0.00666667    T
  Coordinates in Geometry Cycle 13
    Atom         X           Y           Z   (Angstrom)
    1.Mo        0.093415    1.266096   -2.590360
    2.O         1.314080   -0.242758   -2.840933
    3.Mo        2.298027   -1.006176   -1.325965
    4.O         2.376204   -1.407659    0.571015
    5.Mo        1.500450   -1.196148    2.291680
    6.O         0.054909   -0.400649    3.351554
    7.Mo       -1.686235    0.005480    2.547696
    8.O        -2.891978    0.417256    1.058176
    9.Mo       -2.444807    1.693783   -0.337948
   10.O        -1.115188    2.412143   -1.554855
   11.O         1.094638   -2.897165    2.538316
   12.O         2.859039   -0.997187    3.390598
   13.O         3.717364    0.042785   -1.388278
   14.O         2.918824   -2.481379   -2.054671
   15.O         1.085049    2.572120   -3.221525
   16.O        -0.968197    0.858564   -3.939161
   17.O        -2.937634    3.209727    0.412695
   18.O        -3.789134    1.363506   -1.427101
   19.O        -2.066982    1.346018    3.629682
   20.O        -2.634726   -1.327792    3.188288
   21.O        -0.637012    1.641775    1.119681
   22.O         1.732202    0.939265    1.763946
   23.O         1.119731    0.982194   -0.678746
   24.O         1.352991    3.198921    0.628840
   25.P         0.897758    1.744373    0.715080
   26.O        -1.338714   -0.125875   -1.229474
   27.O        -2.095945   -2.477941   -0.508405
   28.P        -0.952162   -1.468213   -0.465423
   29.O        -0.549802   -1.108054    1.043920
   30.O         0.349489   -2.037798   -1.116988
 <Feb17-2023> <22:45:21>  >>>> CORORT
 <Feb17-2023> <22:45:21>  >>>> CLSMAT
 <Feb17-2023> <22:45:21>  >>>> ORTHON
 <Feb17-2023> <22:45:22>  >>>> GENPT
 <Feb17-2023> <22:45:22>  Block Length= 128
 <Feb17-2023> <22:45:22>  >>>> PTBAS
 <Feb17-2023> <22:45:26>  combining surface points...
 <Feb17-2023> <22:45:26>  combining surface points...
 <Feb17-2023> <22:45:26>  combining surface points...
 <Feb17-2023> <22:45:26>  >>>> CYCLE
 <Feb17-2023> <22:45:31>              |Error|         MaxErr       Wt(A-DIIS)
 <Feb17-2023> <22:45:31>      1      0.17819853      0.01588318
 <Feb17-2023> <22:45:35>      2      0.65721953      0.05809575    100.0
 <Feb17-2023> <22:45:39>      3      0.20037420      0.01635646    100.0
 <Feb17-2023> <22:45:43>      4      0.36170967      0.03031459    100.0
 <Feb17-2023> <22:45:47>      5      0.76402406      0.07372611    100.0
 <Feb17-2023> <22:45:51>      6      0.29399008      0.02901133    100.0
 <Feb17-2023> <22:45:55>      7      0.55556237      0.09096764    100.0
 <Feb17-2023> <22:45:59>      8      0.20001285      0.02028478     19.5
 <Feb17-2023> <22:46:03>      9      0.04634706      0.00510896      4.2
 <Feb17-2023> <22:46:07>     10      0.01675270      0.00193681      0.9
 <Feb17-2023> <22:46:10>     11      0.00750836      0.00080109      0.0
 <Feb17-2023> <22:46:14>     12      0.00142871      0.00015656      0.0
 <Feb17-2023> <22:46:18>     13      0.00153072      0.00018004      0.0
 <Feb17-2023> <22:46:22>     14      0.00068469      0.00006732      0.0
 <Feb17-2023> <22:46:26>     15      0.00026015      0.00002743      0.0
 <Feb17-2023> <22:46:29>     16      0.00011471      0.00001144      0.0
 <Feb17-2023> <22:46:33>     17      0.00004941      0.00000665      0.0
 <Feb17-2023> <22:46:37>     18      0.00005769      0.00000884      0.0
 <Feb17-2023> <22:46:41>     19      0.00010445      0.00001190      0.0
 <Feb17-2023> <22:46:44>     20      0.00000651      0.00000063      0.0
 <Feb17-2023> <22:46:45>  SCF converged
 <Feb17-2023> <22:46:48>     21      0.00001327      0.00000156      0.0
 <Feb17-2023> <22:46:49>  >>>> TOTEN
 <Feb17-2023> <22:46:54>  >>>> POPAN
 <Feb17-2023> <22:46:54>  >>>> DEBYE
 <Feb17-2023> <22:46:55>  >>>> ENGRAD
 <Feb17-2023> <22:47:14>  current energy                               -9.54074235 Hartree
 <Feb17-2023> <22:47:14>  energy change                       0.00004222     0.00100000    T
 <Feb17-2023> <22:47:14>  constrained gradient max            0.00155383     0.00100000    F
 <Feb17-2023> <22:47:14>  constrained gradient rms            0.00036982     0.00066667    T
 <Feb17-2023> <22:47:14>  gradient max                        0.00155383
 <Feb17-2023> <22:47:14>  gradient rms                        0.00036982
 <Feb17-2023> <22:47:14>  cart. step max                      0.00176334     0.01000000    T
 <Feb17-2023> <22:47:14>  cart. step rms                      0.00068969     0.00666667    T
  Coordinates in Geometry Cycle 14
    Atom         X           Y           Z   (Angstrom)
    1.Mo        0.092546    1.265619   -2.590149
    2.O         1.313439   -0.243446   -2.840276
    3.Mo        2.297808   -1.006955   -1.326063
    4.O         2.376867   -1.407966    0.571343
    5.Mo        1.501015   -1.195592    2.292191
    6.O         0.055658   -0.399276    3.350801
    7.Mo       -1.686183    0.006245    2.547253
    8.O        -2.892361    0.416629    1.057623
    9.Mo       -2.445200    1.694310   -0.337806
   10.O        -1.115007    2.412883   -1.554274
   11.O         1.092874   -2.896129    2.539298
   12.O         2.860219   -0.998452    3.390807
   13.O         3.716147    0.043436   -1.389268
   14.O         2.920164   -2.481915   -2.054098
   15.O         1.084568    2.571320   -3.221460
   16.O        -0.968920    0.858560   -3.939102
   17.O        -2.938370    3.209716    0.413546
   18.O        -3.788897    1.364105   -1.427654
   19.O        -2.067793    1.346324    3.629376
   20.O        -2.633559   -1.327695    3.188473
   21.O        -0.637013    1.640799    1.120717
   22.O         1.732944    0.939325    1.764164
   23.O         1.119852    0.981864   -0.677935
   24.O         1.352177    3.198923    0.629319
   25.P         0.897754    1.744103    0.715495
   26.O        -1.337552   -0.125692   -1.230478
   27.O        -2.096281   -2.476963   -0.510130
   28.P        -0.951738   -1.468107   -0.466032
   29.O        -0.549383   -1.108458    1.043129
   30.O         0.349879   -2.038301   -1.117475
 <Feb17-2023> <22:47:14>  >>>> CORORT
 <Feb17-2023> <22:47:14>  >>>> CLSMAT
 <Feb17-2023> <22:47:14>  >>>> ORTHON
 <Feb17-2023> <22:47:15>  >>>> GENPT
 <Feb17-2023> <22:47:15>  Block Length= 128
 <Feb17-2023> <22:47:15>  >>>> PTBAS
 <Feb17-2023> <22:47:19>  combining surface points...
 <Feb17-2023> <22:47:19>  combining surface points...
 <Feb17-2023> <22:47:19>  combining surface points...
 <Feb17-2023> <22:47:19>  >>>> CYCLE
 <Feb17-2023> <22:47:24>              |Error|         MaxErr       Wt(A-DIIS)
 <Feb17-2023> <22:47:24>      1      0.17642605      0.01585505
 <Feb17-2023> <22:47:28>      2      0.65444581      0.05786002    100.0
 <Feb17-2023> <22:47:32>      3      0.20211823      0.01585253    100.0
 <Feb17-2023> <22:47:36>      4      0.40076299      0.03365587    100.0
 <Feb17-2023> <22:47:40>      5      0.63061790      0.06163303    100.0
 <Feb17-2023> <22:47:44>      6      0.30204586      0.03043521    100.0
 <Feb17-2023> <22:47:48>      7      0.36761888      0.05936253    100.0
 <Feb17-2023> <22:47:52>      8      0.22459364      0.02401438     23.2
 <Feb17-2023> <22:47:56>      9      0.04331928      0.00531263      4.4
 <Feb17-2023> <22:48:00>     10      0.01664585      0.00174158      0.7
 <Feb17-2023> <22:48:03>     11      0.00755086      0.00088307      0.0
 <Feb17-2023> <22:48:07>     12      0.00184342      0.00021266      0.0
 <Feb17-2023> <22:48:11>     13      0.00097508      0.00013374      0.0
 <Feb17-2023> <22:48:15>     14      0.00053527      0.00010295      0.0
 <Feb17-2023> <22:48:19>     15      0.00023831      0.00003618      0.0
 <Feb17-2023> <22:48:22>     16      0.00008241      0.00001044      0.0
 <Feb17-2023> <22:48:26>     17      0.00003058      0.00000364      0.0
 <Feb17-2023> <22:48:30>     18      0.00002278      0.00000310      0.0
 <Feb17-2023> <22:48:34>     19      0.00005035      0.00000751      0.0
 <Feb17-2023> <22:48:37>     20      0.00000863      0.00000103      0.0
 <Feb17-2023> <22:48:41>     21      0.00001343      0.00000152      0.0
 <Feb17-2023> <22:48:45>     22      0.00000232      0.00000036      0.0
 <Feb17-2023> <22:48:46>  SCF converged
 <Feb17-2023> <22:48:48>     23      0.00000072      0.00000010      0.0
 <Feb17-2023> <22:48:50>  >>>> TOTEN
 <Feb17-2023> <22:48:55>  >>>> POPAN
 <Feb17-2023> <22:48:55>  >>>> DEBYE
 <Feb17-2023> <22:48:55>  >>>> ENGRAD
 <Feb17-2023> <22:49:15>  current energy                               -9.54073733 Hartree
 <Feb17-2023> <22:49:15>  energy change                       0.00000502     0.00100000    T
 <Feb17-2023> <22:49:15>  constrained gradient max            0.00132415     0.00100000    F
 <Feb17-2023> <22:49:15>  constrained gradient rms            0.00030603     0.00066667    T
 <Feb17-2023> <22:49:15>  gradient max                        0.00132415
 <Feb17-2023> <22:49:15>  gradient rms                        0.00030603
 <Feb17-2023> <22:49:15>  cart. step max                      0.00316847     0.01000000    T
 <Feb17-2023> <22:49:15>  cart. step rms                      0.00129844     0.00666667    T
  Coordinates in Geometry Cycle 15
    Atom         X           Y           Z   (Angstrom)
    1.Mo        0.092130    1.265857   -2.589826
    2.O         1.312054   -0.244685   -2.840125
    3.Mo        2.297350   -1.007206   -1.326558
    4.O         2.377288   -1.407459    0.571686
    5.Mo        1.501049   -1.194659    2.292663
    6.O         0.056093   -0.396514    3.349720
    7.Mo       -1.687407    0.005689    2.546633
    8.O        -2.892370    0.414439    1.057762
    9.Mo       -2.443436    1.694309   -0.336927
   10.O        -1.112330    2.413918   -1.553823
   11.O         1.089706   -2.894275    2.541484
   12.O         2.861639   -1.000166    3.390132
   13.O         3.714461    0.044731   -1.392116
   14.O         2.921745   -2.482412   -2.052455
   15.O         1.085380    2.569360   -3.223416
   16.O        -0.971286    0.858687   -3.937478
   17.O        -2.937003    3.208702    0.415659
   18.O        -3.785898    1.365199   -1.428132
   19.O        -2.070323    1.346023    3.628237
   20.O        -2.631916   -1.328982    3.190390
   21.O        -0.637663    1.638983    1.120831
   22.O         1.732989    0.940386    1.764906
   23.O         1.119989    0.981337   -0.677138
   24.O         1.349744    3.199270    0.629538
   25.P         0.897281    1.743862    0.715610
   26.O        -1.336303   -0.124293   -1.230651
   27.O        -2.096592   -2.475841   -0.512371
   28.P        -0.951390   -1.467677   -0.466701
   29.O        -0.549138   -1.109007    1.042295
   30.O         0.349809   -2.038361   -1.118495
 <Feb17-2023> <22:49:15>  >>>> CORORT
 <Feb17-2023> <22:49:15>  >>>> CLSMAT
 <Feb17-2023> <22:49:15>  >>>> ORTHON
 <Feb17-2023> <22:49:15>  >>>> GENPT
 <Feb17-2023> <22:49:15>  Block Length= 128
 <Feb17-2023> <22:49:15>  >>>> PTBAS
 <Feb17-2023> <22:49:20>  combining surface points...
 <Feb17-2023> <22:49:20>  combining surface points...
 <Feb17-2023> <22:49:20>  combining surface points...
 <Feb17-2023> <22:49:20>  >>>> CYCLE
 <Feb17-2023> <22:49:24>              |Error|         MaxErr       Wt(A-DIIS)
 <Feb17-2023> <22:49:24>      1      0.17681494      0.01567475
 <Feb17-2023> <22:49:29>      2      0.65589817      0.05799181    100.0
 <Feb17-2023> <22:49:33>      3      0.20060727      0.01606606    100.0
 <Feb17-2023> <22:49:37>      4      0.37754929      0.03170332    100.0
 <Feb17-2023> <22:49:40>      5      0.70611849      0.06835706    100.0
 <Feb17-2023> <22:49:44>      6      0.29548373      0.02948939    100.0
 <Feb17-2023> <22:49:48>      7      0.46265187      0.07557978    100.0
 <Feb17-2023> <22:49:52>      8      0.19257982      0.01734861     16.5
 <Feb17-2023> <22:49:56>      9      0.05437173      0.00730190      6.4
 <Feb17-2023> <22:50:00>     10      0.02060314      0.00222286      1.2
 <Feb17-2023> <22:50:04>     11      0.00754016      0.00082264      0.0
 <Feb17-2023> <22:50:08>     12      0.00150924      0.00016235      0.0
 <Feb17-2023> <22:50:11>     13      0.00109440      0.00014445      0.0
 <Feb17-2023> <22:50:15>     14      0.00069695      0.00009062      0.0
 <Feb17-2023> <22:50:19>     15      0.00028847      0.00003692      0.0
 <Feb17-2023> <22:50:23>     16      0.00011525      0.00001528      0.0
 <Feb17-2023> <22:50:27>     17      0.00004348      0.00000608      0.0
 <Feb17-2023> <22:50:30>     18      0.00003049      0.00000495      0.0
 <Feb17-2023> <22:50:34>     19      0.00007264      0.00000867      0.0
 <Feb17-2023> <22:50:38>     20      0.00001099      0.00000143      0.0
 <Feb17-2023> <22:50:42>     21      0.00001762      0.00000173      0.0
 <Feb17-2023> <22:50:45>     22      0.00000184      0.00000020      0.0
 <Feb17-2023> <22:50:46>  SCF converged
 <Feb17-2023> <22:50:49>     23      0.00000221      0.00000030      0.0
 <Feb17-2023> <22:50:50>  >>>> TOTEN
 <Feb17-2023> <22:50:55>  >>>> POPAN
 <Feb17-2023> <22:50:55>  >>>> DEBYE
 <Feb17-2023> <22:50:55>  >>>> ENGRAD
 <Feb17-2023> <22:51:15>  current energy                               -9.54073471 Hartree
 <Feb17-2023> <22:51:15>  energy change                       0.00000261     0.00100000    T
 <Feb17-2023> <22:51:15>  constrained gradient max            0.00062897     0.00100000    T
 <Feb17-2023> <22:51:15>  constrained gradient rms            0.00014555     0.00066667    T
 <Feb17-2023> <22:51:15>  gradient max                        0.00062897
 <Feb17-2023> <22:51:15>  gradient rms                        0.00014555
 <Feb17-2023> <22:51:15>  cart. step max                      0.00070314     0.01000000    T
 <Feb17-2023> <22:51:15>  cart. step rms                      0.00027061     0.00666667    T
 <Feb17-2023> <22:51:15>  GEOMETRY CONVERGED
 <Feb17-2023> <22:51:15>  Calculating Energy Terms for Final Geometry
  Coordinates in Geometry Cycle 15
    Atom         X           Y           Z   (Angstrom)
    1.Mo        0.092130    1.265857   -2.589826
    2.O         1.312054   -0.244685   -2.840125
    3.Mo        2.297350   -1.007206   -1.326558
    4.O         2.377288   -1.407459    0.571686
    5.Mo        1.501049   -1.194659    2.292663
    6.O         0.056093   -0.396514    3.349720
    7.Mo       -1.687407    0.005689    2.546633
    8.O        -2.892370    0.414439    1.057762
    9.Mo       -2.443436    1.694309   -0.336927
   10.O        -1.112330    2.413918   -1.553823
   11.O         1.089706   -2.894275    2.541484
   12.O         2.861639   -1.000166    3.390132
   13.O         3.714461    0.044731   -1.392116
   14.O         2.921745   -2.482412   -2.052455
   15.O         1.085380    2.569360   -3.223416
   16.O        -0.971286    0.858687   -3.937478
   17.O        -2.937003    3.208702    0.415659
   18.O        -3.785898    1.365199   -1.428132
   19.O        -2.070323    1.346023    3.628237
   20.O        -2.631916   -1.328982    3.190390
   21.O        -0.637663    1.638983    1.120831
   22.O         1.732989    0.940386    1.764906
   23.O         1.119989    0.981337   -0.677138
   24.O         1.349744    3.199270    0.629538
   25.P         0.897281    1.743862    0.715610
   26.O        -1.336303   -0.124293   -1.230651
   27.O        -2.096592   -2.475841   -0.512371
   28.P        -0.951390   -1.467677   -0.466701
   29.O        -0.549138   -1.109007    1.042295
   30.O         0.349809   -2.038361   -1.118495
 <Feb17-2023> <22:51:15>  >>>> CORORT
 <Feb17-2023> <22:51:15>  >>>> CLSMAT
 <Feb17-2023> <22:51:15>  >>>> ORTHON
 <Feb17-2023> <22:51:16>  >>>> GENPT
 <Feb17-2023> <22:51:16>  Block Length= 128
 <Feb17-2023> <22:51:16>  >>>> PTBAS
 <Feb17-2023> <22:51:20>  combining surface points...
 <Feb17-2023> <22:51:20>  combining surface points...
 <Feb17-2023> <22:51:20>  combining surface points...
 <Feb17-2023> <22:51:20>  >>>> CYCLE
 <Feb17-2023> <22:51:25>              |Error|         MaxErr       Wt(A-DIIS)
 <Feb17-2023> <22:51:25>      1      0.17625339      0.01569503
 <Feb17-2023> <22:51:29>      2      0.65480223      0.07374848    100.0
 <Feb17-2023> <22:51:33>      3      0.20133693      0.01645347    100.0
 <Feb17-2023> <22:51:37>      4      0.39121993      0.04217908    100.0
 <Feb17-2023> <22:51:41>      5      0.65939805      0.08136194    100.0
 <Feb17-2023> <22:51:45>      6      0.29861768      0.03612628    100.0
 <Feb17-2023> <22:51:49>      7      0.40118185      0.06283775    100.0
 <Feb17-2023> <22:51:53>      8      0.20837435      0.02555719     24.8
 <Feb17-2023> <22:51:57>      9      0.05421651      0.00914244      8.2
 <Feb17-2023> <22:52:01>     10      0.02270231      0.00269456      1.7
 <Feb17-2023> <22:52:04>     11      0.00782819      0.00113191      0.1
 <Feb17-2023> <22:52:08>     12      0.00171723      0.00018907      0.0
 <Feb17-2023> <22:52:12>     13      0.00098468      0.00012770      0.0
 <Feb17-2023> <22:52:16>     14      0.00056702      0.00009280      0.0
 <Feb17-2023> <22:52:19>     15      0.00026293      0.00003542      0.0
 <Feb17-2023> <22:52:23>     16      0.00010294      0.00001451      0.0
 <Feb17-2023> <22:52:27>     17      0.00002737      0.00000355      0.0
 <Feb17-2023> <22:52:31>     18      0.00002209      0.00000325      0.0
 <Feb17-2023> <22:52:34>     19      0.00004025      0.00000537      0.0
 <Feb17-2023> <22:52:38>     20      0.00000877      0.00000140      0.0
 <Feb17-2023> <22:52:42>     21      0.00001602      0.00000230      0.0
 <Feb17-2023> <22:52:46>     22      0.00000316      0.00000071      0.0
 <Feb17-2023> <22:52:47>  SCF converged
 <Feb17-2023> <22:52:49>     23      0.00000064      0.00000008      0.0
 <Feb17-2023> <22:52:52>  >>>> TOTEN
 <Feb17-2023> <22:53:03>  QTAIM: determining topology...
 <Feb17-2023> <22:53:10>  >>>> POPAN
 <Feb17-2023> <22:53:10>  >>>> DEBYE
 <Feb17-2023> <22:53:10>  >>>> AMETS
 <Feb17-2023> <22:53:10>  >>>> POPUL
 <Feb17-2023> <22:53:10>   Bond Energy          -9.54073471 a.u.
 <Feb17-2023> <22:53:10>   Bond Energy        -259.61660096 eV
 <Feb17-2023> <22:53:10>   Bond Energy       -5986.90       kcal/mol
 <Feb17-2023> <22:53:10>  >>>> ENHESS
 <Feb17-2023> <22:53:20>  === NUCLEUS:     1
 <Feb17-2023> <22:57:28>  === NUCLEUS:     2
 <Feb17-2023> <23:01:12>  === NUCLEUS:     3
 <Feb17-2023> <23:05:01>  === NUCLEUS:     4
 <Feb17-2023> <23:08:50>  === NUCLEUS:     5
 <Feb17-2023> <23:12:34>  === NUCLEUS:     6
 <Feb17-2023> <23:16:13>  === NUCLEUS:     7
 <Feb17-2023> <23:19:52>  === NUCLEUS:     8
 <Feb17-2023> <23:23:27>  === NUCLEUS:     9
 <Feb17-2023> <23:27:06>  === NUCLEUS:    10
 <Feb17-2023> <23:30:44>  === NUCLEUS:    11
 <Feb17-2023> <23:34:14>  === NUCLEUS:    12
 <Feb17-2023> <23:37:49>  === NUCLEUS:    13
 <Feb17-2023> <23:41:19>  === NUCLEUS:    14
 <Feb17-2023> <23:44:53>  === NUCLEUS:    15
 <Feb17-2023> <23:48:27>  === NUCLEUS:    16
 <Feb17-2023> <23:52:01>  === NUCLEUS:    17
 <Feb17-2023> <23:55:31>  === NUCLEUS:    18
 <Feb17-2023> <23:59:05>  === NUCLEUS:    19
 <Feb18-2023> <00:02:35>  === NUCLEUS:    20
 <Feb18-2023> <00:06:05>  === NUCLEUS:    21
 <Feb18-2023> <00:09:47>  === NUCLEUS:    22
 <Feb18-2023> <00:13:26>  === NUCLEUS:    23
 <Feb18-2023> <00:17:05>  === NUCLEUS:    24
 <Feb18-2023> <00:20:35>  === NUCLEUS:    25
 <Feb18-2023> <00:24:13>  === NUCLEUS:    26
 <Feb18-2023> <00:27:48>  === NUCLEUS:    27
 <Feb18-2023> <00:31:26>  === NUCLEUS:    28
 <Feb18-2023> <00:35:00>  === NUCLEUS:    29
 <Feb18-2023> <00:38:52>  === NUCLEUS:    30
 <Feb18-2023> <00:42:39>  >>>> CALC_HESS_PMAT
 <Feb18-2023> <00:43:34>  >>>> CALC_HESS_WMAT
 <Feb18-2023> <00:43:41>  NORMAL TERMINATION
 <Feb18-2023> <00:43:41>  END
