    Atoms
    1 O      -0.657601000000       1.658171000000       2.156225000000     R=1.72
    2 H      -1.179762000000       0.855393000000       1.411450000000     R=1.30
    3 H      -1.478506000000       0.106672000000      -0.202172000000     R=1.30
    4 H      -0.560385000000       2.524285000000       1.705498000000     R=1.30
    5 O      -1.722506000000       0.000624000000       0.742293000000     R=1.72
    6 H      -2.696359000000       0.116991000000       0.776699000000     R=1.30
    End
    GUIBonds
        1 1 4 1.0
        2 5 3 1.0
        3 5 6 1.0
    End
    NoPrint LOGFILE
    XC
        GGA PBE
    End
    Relativistic Scalar ZORA
    Geometry
    End
    SOLVATION
        Surf Delley
        Solv name=Water cav0=0.0 cav1=0.0067639
        Charged method=CONJ
        C-Mat POT
        SCF VAR ALL
        CSMRSP
    END
    AnalyticalFreq
    End
    NumericalQuality Good
    ScanFreq -1000 0
    QTAIM
        Enabled Yes
    End

Fragments
H t21.H
O t21.O
End

 *******************************************************************************
 *                                                                             *
 *  -------------------------------------                                      *
 *   Amsterdam Density Functional  (ADF)         2019                          *
 *  -------------------------------------                                      *
 *                                               r74351 2019-04-25             *
 *                                                                             *
 *                                                                             *
 *                              =================                              *
 *                              |               |                              *
 *                              |     A D F     |                              *
 *                              |               |                              *
 *                              =================                              *
 *                                                                             *
 *                                                                             *
 *   Online information and documentation:  https://www.scm.com/support/       *
 *   E-mail:  support@scm.com   info@scm.com                                   *
 *                                                                             *
 *   Scientific publications using ADF results must be properly referenced     *
 *   See the User Manuals (or the web site) for recommended citations          *
 *   The terms and conditions of the End User License Agreement apply to       *
 *   the use of ADF, https://www.scm.com/license-terms/                        *
 *                                                                             *
 **********************  x86_64_linux_intel / intelmpi  ************************
 

 ===========================
 A T T A C H E D   F I L E S
 ===========================
  



 ===============================
 M O D E L   P A R A M E T E R S
 ===============================
  
 DENSITY FUNCTIONAL POTENTIAL (scf)
    LDA:                               PW92                                    == Not Default ==
    Gradient Corrections:              PBEc PBEx                               == Not Default ==

 SPIN  (restricted / unrestr.)
    Molecule:                          Restricted                               
    Fragments:                         Restricted                               

 OTHER ASPECTS
    Relativistic Corrections:          scalar (ZORA,MAPA)                      == Not Default ==

    Nuclear Charge Density Model:      Point Charge Nuclei                      
    Core Treatment:                    Frozen Orbital(s)                        

    Hyperfine or Zeeman Interaction:   ---                                      

 SOLVATION
-------------------------------------------

  The Delley construction of COSMO surface surface is calculated

       Division Level for Surface Triangles (NDIV)                  3
       Final Division Level for Triangles (NFDIV)                   1
       Radius of the Solvent (RSOL)                           1.93000 angstr
  Dielectric Constant (EPSL)                                 78.39000

       COSMO equation is solved iteratively-               conjugate-gradient

       Maximun of Iterations for Charges (NCIX)                  1000
       Criterion for Charge convergence (CCNV)                1.0E-08

  COSMO charges included variationally in SCF

       COSMO included at every SCF cycle

  Geometry-dependent empirical factor                         0.00000

  C-Matrix calculated in cspmtx

  In cspmtx, C-Matrix calculated using fitted potential

-------------------------------------------



 Fragment File(s)
 ----------------
 O:
         file : t21.O
         jobid: ADF 2019  RunTime: Nov20-2019 12:46:13  Nodes: 1  Procs: 1
         title: Oxygen (TZP, 1s frozen)
 H:
         file : t21.H
         jobid: ADF 2019  RunTime: Nov20-2019 12:46:12  Nodes: 1  Procs: 1
         title: Hydrogen (TZP)



                                   *********************************************
                                   *  R U N   T Y P E : GEOMETRY OPTIMIZATION  *
                                   *********************************************
  



 ===============
 G E O M E T R Y  ***  3D  Molecule  ***
 ===============
  

 ATOMS
 =====                            X Y Z                    CHARGE                     RADIUS
                                (Angstrom)             Nucl     +Core       At.Mass (Angstrom)
                       --------------------------    ----------------       ------- ----------
    1  O              -0.6576    1.6582    2.1562      8.00      6.00       15.9949    1.7200
    2  H              -1.1798    0.8554    1.4115      1.00      1.00        1.0078    1.3000
    3  H              -1.4785    0.1067   -0.2022      1.00      1.00        1.0078    1.3000
    4  H              -0.5604    2.5243    1.7055      1.00      1.00        1.0078    1.3000
    5  O              -1.7225    0.0006    0.7423      8.00      6.00       15.9949    1.7200
    6  H              -2.6964    0.1170    0.7767      1.00      1.00        1.0078    1.3000


 FRAGMENTS
 =========                                     Atoms in this Fragment     Cart. coord.s (Angstrom)
                                               -------------------------------------------------------
    1  O                                                 1  O           -0.6576    1.6582    2.1562
    2  O                                                 5  O           -1.7225    0.0006    0.7423
    3  H                                                 2  H           -1.1798    0.8554    1.4115
    4  H                                                 3  H           -1.4785    0.1067   -0.2022
    5  H                                                 4  H           -0.5604    2.5243    1.7055
    6  H                                                 6  H           -2.6964    0.1170    0.7767


 Interatomic Distance Matrix (Angstrom)
 --------------------------------------

   1)     0.000
   2)     1.213   0.000
   3)     2.940   1.804   0.000
   4)     0.981   1.804   3.214   0.000
   5)     2.425   1.214   0.981   2.941   0.000
   6)     2.904   1.802   1.563   3.350   0.981   0.000

 Min. Distance =    0.9812
 Max. Distance =    3.3496



 =====================================
 S Y M M E T R Y ,   E L E C T R O N S
 =====================================
  
 Symmetry: NOSYM

 Irreducible Representations, including subspecies
 -------------------------------------------------
 A


 Configuration of Valence Electrons
 ==================================
 ( determined in the SCF procedure )

 Total:   16

 Net Charge: 0 (Nuclei minus Electrons)

 Aufbau principle for MO occupations will be applied through SCF cycle no.     150
 Thereafter, the program will assign electrons to MOs that are spatially
 similar to the occupied MOs in a "reference" cycle ("KeepOrbitals").
 The reference cycle is always the PREVIOUS cycle: it will evolve with
 the SCF procedure.
1
 ***************************************************************************************************



                                      ****************************************
                                      *  B U I L D : (Fragments, Functions)  *
                                      ****************************************
  

 Total nr. of (C)SFOs (summation over all irreps) :    58

 Specify PRINT SFO in the input file to get a full list

 Nr. of SFOs for ir.rep.           A :    58



 ================================
 (Slater-type)  F U N C T I O N S  ***  (Basis and Fit)  ***
 ================================
  

 Atom Type    1  (O)
 ==============

 Valence Basis Sets:   8
 -----------------------
   1 S    7.360000
   2 S    1.720000
   2 S    2.880000
   2 S    7.580000
   2 P    1.120000
   2 P    2.080000
   2 P    4.080000
   3 D    2.000000

 Frozen Core Shells
 ------------------
    S:  1

 Atom Type    2  (H)
 ==============

 Valence Basis Sets:   4
 -----------------------
   1 S    0.690000
   1 S    0.920000
   1 S    1.580000
   2 P    1.250000


 BAS: List of all Elementary Cartesian Basis Functions
 =====================================================

 The numbering in the list below (to the right of the function characteristics) is referred
 to in print-outs of MO eigenvectors and Mulliken populations in the BAS representation
 (as contrasted to the SFO representation).

 Notes:
 1. The functions are characterized by a polynomial prefactor (powers of x,y,z and r) and
    an exponential decay factor alpha.
 2. Since the basis sets are specific for an atom TYPE, the individual functions occur on
    all atoms of that type.
 3. The word 'Core' in the left margin signals that it is a Core Function (CF) : not a
    degree of freedom in the valence set, but only used to ensure orthogonalization of
    the other valence basis functions on the frozen Core Orbitals.


 (power of) X  Y  Z  R     Alpha  on Atom
            ==========     =====     ==========

 O                                    1    2
                                  ---------------------------------------------------------------------------
    Core    0  0  0  0     7.360      1   20
            0  0  0  1     1.720      2   21
            0  0  0  1     2.880      3   22
            0  0  0  1     7.580      4   23
            1  0  0  0     1.120      5   24
            0  1  0  0     1.120      6   25
            0  0  1  0     1.120      7   26
            1  0  0  0     2.080      8   27
            0  1  0  0     2.080      9   28
            0  0  1  0     2.080     10   29
            1  0  0  0     4.080     11   30
            0  1  0  0     4.080     12   31
            0  0  1  0     4.080     13   32
            2  0  0  0     2.000     14   33
            1  1  0  0     2.000     15   34
            1  0  1  0     2.000     16   35
            0  2  0  0     2.000     17   36
            0  1  1  0     2.000     18   37
            0  0  2  0     2.000     19   38

 H                                    3    4    5    6
                                  ---------------------------------------------------------------------------
            0  0  0  0     0.690     39   45   51   57
            0  0  0  0     0.920     40   46   52   58
            0  0  0  0     1.580     41   47   53   59
            1  0  0  0     1.250     42   48   54   60
            0  1  0  0     1.250     43   49   55   61
            0  0  1  0     1.250     44   50   56   62

 Total number of charge fitting functions (nprimf)       364
 Total number of Cartesian basis functions (naos)         62
 Total number of Cartesian core functions  (ncos)          2

Bad geometry: added dihedral     4    2    1    5
Bad geometry: added dihedral     6    2    1    5


 Coordinates (Cartesian)
 =======================

     Atom                    bohr                                 angstrom                 Geometric Variables
                   X           Y           Z              X           Y           Z       (0:frozen, *:LT par.)
 --------------------------------------------------------------------------------------------------------------
     1 O      -1.242686    3.133489    4.074675      -0.657601    1.658171    2.156225      1       2       3
     2 H      -2.229427    1.616458    2.667254      -1.179762    0.855393    1.411450      4       5       6
     3 H      -2.793971    0.201581   -0.382050      -1.478506    0.106672   -0.202172      7       8       9
     4 H      -1.058974    4.770207    3.222924      -0.560385    2.524285    1.705498     10      11      12
     5 O      -3.255065    0.001179    1.402730      -1.722506    0.000624    0.742293     13      14      15
     6 H      -5.095380    0.221081    1.467748      -2.696359    0.116991    0.776699     16      17      18
 --------------------------------------------------------------------------------------------------------------
1
 ***************************************************************************************************



                                              ***********************
                                              *  T E C H N I C A L  *
                                              ***********************
  



 =============================================================
 P A R A L L E L I Z A T I O N  and  V E C T O R I Z A T I O N
 =============================================================
  
 Nr of parallel processes:                               12
 Maximum vector length in NumInt loops:                 128



 ===============================
 G E O M E T R Y   U P D A T E S
 ===============================
  
 Optimization coordinates:                       Delocalized
 Optimization code branch:                       NEW
 Hessian update method:                          BFGS (Broyden-Fletcher-Goldfarb-Shanno)

 Iterative Geometry Improvements:
    Max. nr. of iterations:                         36
    Convergence criteria:
         Change in energy (hartree):                 0.0010000000
         Gradients (au/Angstrom):                    0.0010000000
         Cart/bondlength changes (Angstrom):         0.0100000000
    Max. step to take:
         Trust Radius:                               0.2000000000

 GDIIS (Geometry Direct Inversion in Iteration Space):
    First geometry cycle:                            0
    Max. number expansion vectors:                   5



 =====================
 S C F   U P D A T E S
 =====================
  
 Max. nr. of cycles:                               300
 Convergence criterion:                              0.0000010000
   secondary criterion:                              0.0010000000

 Mix parameter (when DIIS does not apply):           0.2000000000
 Mixed ADIIS+SDIIS will be used                  
    Max number of expansion vectors:                10
    Pure ADIIS when Max([F,P]) is above              0.1000000000
    Pure SDIIS when Max([F,P]) is below              0.0010000000



 =================
 P R E C I S I O N  ***  (General: NumInt, NeglectFunctionTails, ...)  ***
 =================
  

 NumInt:           Target precision:                 6.0000000000
 -------           Initial precision:                6.0000000000
                   Min. precision (optimization):    6.0000000000

 Neglect Functions:          Basis functions:        0.1000000000E-07
 ------------------          Fit functions:          0.1000000000E-07



 ===========================
 L I N E A R   S C A L I N G
 ===========================
  

 Cut-off radii density fit:                        0.1000000000E-09
 Overlap cut-off criterion AO matrix elements:     0.1000000000E-07
 Cut-offs for Coulomb potential and fitted density:0.1000000000E-09
 Cut-off criterion for Coulomb multipole terms:    0.1000000000E-09
 Progressive Convergence parameter:                 0.000000000    
1
 ***************************************************************************************************



                                            ***************************
                                            *  C O M P U T A T I O N  *
                                            ***************************
  

 Number of elements of the density matrix on this node (used, total):       190      1953



 ===========================================
 Numerical Integration : Fuzzy Cells (Becke)
 ===========================================
  
 Becke grid quality: GOOD           
  
 Lebedev angular grid order:             min:  11 max:  31
 Nr. of radial points:                   min:  54 max:  58

 Total nr. of points:      71848
 Nr. of blocks:              562
 Block length:               128
 Nr. of dummy points:         88


 Test of Precision of the Numerical Integration Grid
 ===================================================

 Integral of the Total Core Density:                   3.99999803454657
 Relative Error:                                      -4.914E-07


 -------------------------------------------
  COSMO surface
  Area             =          254.967
  Volume           =          327.666
  Number of Points =          706
 -------------------------------------------



 ========================
 Density Fitting (zlmFit)
 ========================
  
 ZlmFit Fit Quality: GOOD           
  
 Max L-expansion:                        min:   7 max:   8
 Nr. of radial interpolation points:     min:  72 max:  84



 =====
 S C F  ***  ScaSCF  ***
 =====
  
 Initial density matrix is calculated as sum of fragments

 CYCLE    1
 SCF Error: norm([F,P])=      1.384463037540, max([F,P])=      0.268844951297
 orbitals (Q,E):
 ---------------
 A :1...18           ( 2.00    -1.1265)  ( 2.00    -1.0377)  ( 2.00    -0.6428)  ( 2.00    -0.6308)
                     ( 2.00    -0.5317)  ( 2.00    -0.4932)  ( 2.00    -0.4304)  ( 2.00    -0.4111)
                     ( 0.00    -0.0806)  ( 0.00    -0.0321)  ( 0.00    -0.0072)  ( 0.00     0.0736)
                     ( 0.00     0.1442)  ( 0.00     0.1533)  ( 0.00     0.1598)  ( 0.00     0.1746)
                     ( 0.00     0.2328)  ( 0.00     0.3018)

 CYCLE    2
  SDIIS (wt  0.000):  0.3868  0.6132
 A-DIIS (wt  1.000):  0.1822  0.8178
  DIIS coefficients:  0.1822  0.8178
 SCF Error: norm([F,P])=      1.058368671655, max([F,P])=      0.314075058629
 orbitals (Q,E):
 ---------------
 A :1...9            ( 2.00    -0.9042)  ( 2.00    -0.6768)  ( 2.00    -0.4590)  ( 2.00    -0.4055)
                     ( 2.00    -0.2679)  ( 2.00    -0.2205)  ( 2.00    -0.1024)  ( 2.00    -0.0703)
                     ( 0.00    -0.0064)

 CYCLE    3
  SDIIS (wt  0.000):  0.0107  0.5956  0.3936
 A-DIIS (wt  1.000):  0.0000  0.6557  0.3443
  DIIS coefficients:  0.0000  0.6557  0.3443
 SCF Error: norm([F,P])=      1.585146382492, max([F,P])=      0.530829563369
 orbitals (Q,E):
 ---------------
 A :1...9            ( 2.00    -0.9604)  ( 2.00    -0.8171)  ( 2.00    -0.5010)  ( 2.00    -0.4665)
                     ( 2.00    -0.3400)  ( 2.00    -0.3160)  ( 2.00    -0.2223)  ( 2.00    -0.1982)
                     ( 0.00    -0.0184)

 CYCLE    4
  SDIIS (wt  0.272):  0.3400  0.1417  0.5183
 A-DIIS (wt  0.728):  0.0353  0.0000  0.9647
  DIIS coefficients:  0.1182  0.0385  0.8433
 SCF Error: norm([F,P])=      0.295667571417, max([F,P])=      0.073069067235
 orbitals (Q,E):
 ---------------
 A :1...9            ( 2.00    -1.0352)  ( 2.00    -0.8569)  ( 2.00    -0.5630)  ( 2.00    -0.5223)
                     ( 2.00    -0.4019)  ( 2.00    -0.3699)  ( 2.00    -0.2694)  ( 2.00    -0.2364)
                     ( 0.00    -0.0310)

 CYCLE    5
  SDIIS (wt  0.000):  0.0226 -0.0066  0.5776  0.4064
 A-DIIS (wt  1.000):  0.0000  0.0000  0.5615  0.4385
  DIIS coefficients:  0.0000  0.0000  0.5615  0.4385
 SCF Error: norm([F,P])=      0.347721267419, max([F,P])=      0.089216452761
 orbitals (Q,E):
 ---------------
 A :1...9            ( 2.00    -0.9934)  ( 2.00    -0.8413)  ( 2.00    -0.5279)  ( 2.00    -0.4914)
                     ( 2.00    -0.3675)  ( 2.00    -0.3446)  ( 2.00    -0.2488)  ( 2.00    -0.2213)
                     ( 0.00    -0.0242)

 CYCLE    6
  SDIIS (wt  0.853): -0.0302  0.0046  0.1530  0.1742  0.6984
 A-DIIS (wt  0.147):  0.0000  0.0000  0.0000  0.0000  1.0000
  DIIS coefficients: -0.0258  0.0039  0.1306  0.1486  0.7427
 SCF Error: norm([F,P])=      0.045444127986, max([F,P])=      0.015545274651
 orbitals (Q,E):
 ---------------
 A :1...9            ( 2.00    -0.9921)  ( 2.00    -0.8343)  ( 2.00    -0.5268)  ( 2.00    -0.4892)
                     ( 2.00    -0.3643)  ( 2.00    -0.3409)  ( 2.00    -0.2429)  ( 2.00    -0.2146)
                     ( 0.00    -0.0237)

 CYCLE    7
  SDIIS (wt  0.966): -0.0022  0.0001  0.0275  0.0206  0.2681  0.6860
 A-DIIS (wt  0.034):  0.0000  0.0000  0.0000  0.0000  0.0910  0.9090
  DIIS coefficients: -0.0021  0.0001  0.0265  0.0199  0.2621  0.6936
 SCF Error: norm([F,P])=      0.012883028202, max([F,P])=      0.004381638056
 orbitals (Q,E):
 ---------------
 A :1...9            ( 2.00    -0.9920)  ( 2.00    -0.8357)  ( 2.00    -0.5267)  ( 2.00    -0.4894)
                     ( 2.00    -0.3647)  ( 2.00    -0.3416)  ( 2.00    -0.2441)  ( 2.00    -0.2161)
                     ( 0.00    -0.0238)

 CYCLE    8
  SDIIS (wt  1.000): -0.0002 -0.0000  0.0036  0.0026  0.0537  0.1963  0.7440
  DIIS coefficients: -0.0002 -0.0000  0.0036  0.0026  0.0537  0.1963  0.7440
 SCF Error: norm([F,P])=      0.000680232359, max([F,P])=      0.000203808637
 orbitals (Q,E):
 ---------------
 A :1...9            ( 2.00    -0.9920)  ( 2.00    -0.8357)  ( 2.00    -0.5268)  ( 2.00    -0.4894)
                     ( 2.00    -0.3647)  ( 2.00    -0.3416)  ( 2.00    -0.2441)  ( 2.00    -0.2160)
                     ( 0.00    -0.0238)

 CYCLE    9
  SDIIS (wt  1.000):  0.0000 -0.0000 -0.0001 -0.0000  0.0016  0.0170  0.1302  0.8513
  DIIS coefficients:  0.0000 -0.0000 -0.0001 -0.0000  0.0016  0.0170  0.1302  0.8513
 SCF Error: norm([F,P])=      0.000044038125, max([F,P])=      0.000013041799
 orbitals (Q,E):
 ---------------
 A :1...9            ( 2.00    -0.9921)  ( 2.00    -0.8357)  ( 2.00    -0.5268)  ( 2.00    -0.4894)
                     ( 2.00    -0.3647)  ( 2.00    -0.3416)  ( 2.00    -0.2441)  ( 2.00    -0.2160)
                     ( 0.00    -0.0238)

 CYCLE   10
  SDIIS (wt  1.000):  0.0000 -0.0000 -0.0000 -0.0000 -0.0001  0.0003  0.0083  0.0790  0.9126
  DIIS coefficients:  0.0000 -0.0000 -0.0000 -0.0000 -0.0001  0.0003  0.0083  0.0790  0.9126
 SCF Error: norm([F,P])=      0.000004642166, max([F,P])=      0.000001554680
 orbitals (Q,E):
 ---------------
 A :1...9            ( 2.00    -0.9921)  ( 2.00    -0.8357)  ( 2.00    -0.5268)  ( 2.00    -0.4894)
                     ( 2.00    -0.3647)  ( 2.00    -0.3416)  ( 2.00    -0.2441)  ( 2.00    -0.2160)
                     ( 0.00    -0.0238)

 CYCLE   11
  SDIIS (wt  1.000):  0.0000 -0.0000 -0.0000 -0.0000 -0.0001 -0.0002  0.0001  0.0069  0.2568  0.7364
  DIIS coefficients:  0.0000 -0.0000 -0.0000 -0.0000 -0.0001 -0.0002  0.0001  0.0069  0.2568  0.7364
 SCF Error: norm([F,P])=      0.000000432025, max([F,P])=      0.000000120304
 orbitals (Q,E):
 ---------------
 A :1...9            ( 2.00    -0.9921)  ( 2.00    -0.8357)  ( 2.00    -0.5268)  ( 2.00    -0.4894)
                     ( 2.00    -0.3647)  ( 2.00    -0.3416)  ( 2.00    -0.2441)  ( 2.00    -0.2160)
                     ( 0.00    -0.0238)

 SCF CONVERGED
 cosmo_calcen: 0.5 (esolb+esolc) (Hartrees) =   -0.037650

 Solvation energy (screening term,uncorrected) =    -23.625680 kcal/mol

 Solvation energy (dispersion and cavitation terms) =      0.476769 kcal/mol
 Solvation Energy Contributions (Hartrees)
          esola   esolb+esolc
     0.03764991   -0.07529983
 esol last cycle   -0.03764991

 CYCLE   12
 *** Using FIT density in Focky
  SDIIS (wt  1.000): -0.0000  0.0000 -0.0000 -0.0000 -0.0000 -0.0002 -0.0009  0.0299  0.1444  0.8268
  DIIS coefficients: -0.0000  0.0000 -0.0000 -0.0000 -0.0000 -0.0002 -0.0009  0.0299  0.1444  0.8268
 SCF Error: norm([F,P])=      0.000000089742, max([F,P])=      0.000000024316
 orbitals (Q,E):
 ---------------
 A :1...18           ( 2.00    -0.9921)  ( 2.00    -0.8357)  ( 2.00    -0.5268)  ( 2.00    -0.4894)
                     ( 2.00    -0.3647)  ( 2.00    -0.3416)  ( 2.00    -0.2441)  ( 2.00    -0.2160)
                     ( 0.00    -0.0238)  ( 0.00     0.0281)  ( 0.00     0.0533)  ( 0.00     0.1201)
                     ( 0.00     0.2067)  ( 0.00     0.2171)  ( 0.00     0.2511)  ( 0.00     0.2780)
                     ( 0.00     0.3241)  ( 0.00     0.3827)
 cosmo_calcen: 0.5 (esolb+esolc) (Hartrees) =   -0.037650

 Solvation energy (screening term,uncorrected) =    -23.625681 kcal/mol

 Solvation energy (dispersion and cavitation terms) =      0.476769 kcal/mol
 Solvation Energy Contributions (Hartrees)
          esola   esolb+esolc
     0.03764992   -0.07529983
 esol last cycle   -0.03764992


 Fit test: (difference of exact and fit density, squared integrated, result summed over spins)
         SCF:                                          0.00001914910898

 Gross Charges per Atom (Z minus electrons)
 ==========================================
            -0.8975    0.3280    0.3966    0.3070   -0.5277    0.3935
 Net Total: -0.00000000



 =================================================================
 M U L T I P O L E   D E R I V E D   C H A R G E   A N A L Y S I S
 =================================================================

 See: M. Swart, P.Th. van Duijnen, J.G. Snijders, J.Comput.Chem., (2001), p. 79-88.

 --------------------------------------- 
 Multipole derived atomic charges (a.u.)
 --------------------------------------- 

        Atom    Level:     MDC-m        MDC-d        MDC-q
 ---------------------------------------------------------
     1     O           -0.490047    -0.932709    -0.869655
     2     H            0.067616     0.299587     0.343861
     3     H            0.174461     0.417980     0.325137
     4     H            0.057018     0.346802     0.270973
     5     O            0.016868    -0.549364    -0.377539
     6     H            0.174084     0.417704     0.307223
 *** Using NEW gradient routines ***


 Geometry CYCLE 1
 ==============

 Energy gradients wrt nuclear displacements
 ==========================================

     Atom      Cartesian (a.u./angstrom)
                 X         Y         Z
 ----------------------------------------
     1 O     0.015063  0.025952  0.025330
     2 H    -0.044903 -0.083584 -0.058071
     3 H     0.002255  0.000921 -0.002282
     4 H     0.005299  0.015338  0.000933
     5 O     0.025323  0.040881  0.032175
     6 H    -0.003037  0.000491  0.001914
 ----------------------------------------
 
----------------------------------------------------------------------
Geometry Convergence after Step   1       (Hartree/Angstrom,Angstrom)
----------------------------------------------------------------------
current energy                               -1.04018934 Hartree
energy change                      -1.04018934     0.00100000    F
constrained gradient max            0.08358357     0.00100000    F
constrained gradient rms            0.03122763     0.00066667    F
gradient max                        0.08358357
gradient rms                        0.03122763
cart. step max                      0.03798462     0.01000000    F
cart. step rms                      0.01385448     0.00666667    F
 


 Coordinates (Cartesian)
 =======================

     Atom                    bohr                                 angstrom                 Geometric Variables
                   X           Y           Z              X           Y           Z       (0:frozen, *:LT par.)
 --------------------------------------------------------------------------------------------------------------
     1 O      -1.223600    3.119324    4.082938      -0.647501    1.650675    2.160598      1       2       3
     2 H      -2.203748    1.688239    2.710440      -1.166173    0.893378    1.434303      4       5       6
     3 H      -2.800894    0.194907   -0.386333      -1.482169    0.103140   -0.204438      7       8       9
     4 H      -1.088692    4.724965    3.200087      -0.576111    2.500344    1.693413     10      11      12
     5 O      -3.260309    0.003541    1.396196      -1.725281    0.001874    0.738835     13      14      15
     6 H      -5.098260    0.213020    1.449953      -2.697883    0.112725    0.767282     16      17      18
 --------------------------------------------------------------------------------------------------------------

 Number of elements of the density matrix on this node (used, total):       190      1953



 ===========================================
 Numerical Integration : Fuzzy Cells (Becke)
 ===========================================
  
 Becke grid quality: GOOD           
  
 Lebedev angular grid order:             min:  11 max:  31
 Nr. of radial points:                   min:  54 max:  58

 Total nr. of points:      71849
 Nr. of blocks:              562
 Block length:               128
 Nr. of dummy points:         87


 Test of Precision of the Numerical Integration Grid
 ===================================================

 Integral of the Total Core Density:                   3.99999835524740
 Relative Error:                                      -4.112E-07


 -------------------------------------------
  COSMO surface
  Area             =          254.651
  Volume           =          327.235
  Number of Points =          701
 -------------------------------------------



 ========================
 Density Fitting (zlmFit)
 ========================
  
 ZlmFit Fit Quality: GOOD           
  
 Max L-expansion:                        min:   7 max:   8
 Nr. of radial interpolation points:     min:  72 max:  84



 =====
 S C F  ***  ScaSCF  ***
 =====
  
 Initial density matrix is taken from previous geometry

 CYCLE    1
 SCF Error: norm([F,P])=      0.128883889737, max([F,P])=      0.027792309083
 orbitals (Q,E):
 ---------------
 A :1...18           ( 2.00    -1.0292)  ( 2.00    -0.7971)  ( 2.00    -0.5705)  ( 2.00    -0.4951)
                     ( 2.00    -0.3831)  ( 2.00    -0.3171)  ( 2.00    -0.2091)  ( 2.00    -0.1625)
                     ( 0.00    -0.0697)  ( 0.00     0.0010)  ( 0.00     0.0389)  ( 0.00     0.1281)
                     ( 0.00     0.1728)  ( 0.00     0.1751)  ( 0.00     0.2619)  ( 0.00     0.2934)
                     ( 0.00     0.3174)  ( 0.00     0.3751)

 CYCLE    2
  SDIIS (wt  0.000):  0.6234  0.3766
 A-DIIS (wt  1.000):  0.7001  0.2999
  DIIS coefficients:  0.7001  0.2999
 SCF Error: norm([F,P])=      0.197083617307, max([F,P])=      0.045296845909
 orbitals (Q,E):
 ---------------
 A :1...9            ( 2.00    -1.0135)  ( 2.00    -0.8269)  ( 2.00    -0.5534)  ( 2.00    -0.4914)
                     ( 2.00    -0.3762)  ( 2.00    -0.3371)  ( 2.00    -0.2366)  ( 2.00    -0.1951)
                     ( 0.00    -0.0547)

 CYCLE    3
  SDIIS (wt  0.000):  0.3914  0.1175  0.4911
 A-DIIS (wt  1.000):  0.4679  0.0000  0.5321
  DIIS coefficients:  0.4679  0.0000  0.5321
 SCF Error: norm([F,P])=      0.078316024739, max([F,P])=      0.016260947294
 orbitals (Q,E):
 ---------------
 A :1...9            ( 2.00    -1.0030)  ( 2.00    -0.8231)  ( 2.00    -0.5419)  ( 2.00    -0.4851)
                     ( 2.00    -0.3687)  ( 2.00    -0.3333)  ( 2.00    -0.2338)  ( 2.00    -0.1935)
                     ( 0.00    -0.0427)

 CYCLE    4
  SDIIS (wt  0.808): -0.6233  0.2376  1.3857
 A-DIIS (wt  0.192):  0.0000  0.1110  0.8890
  DIIS coefficients: -0.5035  0.2133  1.2902
 SCF Error: norm([F,P])=      0.087093542466, max([F,P])=      0.020031565459
 orbitals (Q,E):
 ---------------
 A :1...9            ( 2.00    -0.9801)  ( 2.00    -0.8507)  ( 2.00    -0.5172)  ( 2.00    -0.4791)
                     ( 2.00    -0.3648)  ( 2.00    -0.3387)  ( 2.00    -0.2547)  ( 2.00    -0.2252)
                     ( 0.00    -0.0227)

 CYCLE    5
  SDIIS (wt  0.907): -0.3011 -0.0134  0.8312  0.4834
 A-DIIS (wt  0.093):  0.0000  0.0000  0.0000  1.0000
  DIIS coefficients: -0.2732 -0.0122  0.7541  0.5313
 SCF Error: norm([F,P])=      0.038264437881, max([F,P])=      0.010184830901
 orbitals (Q,E):
 ---------------
 A :1...9            ( 2.00    -0.9853)  ( 2.00    -0.8466)  ( 2.00    -0.5218)  ( 2.00    -0.4809)
                     ( 2.00    -0.3651)  ( 2.00    -0.3405)  ( 2.00    -0.2527)  ( 2.00    -0.2209)
                     ( 0.00    -0.0230)

 CYCLE    6
  SDIIS (wt  0.978): -0.0135 -0.0246  0.0727  0.3243  0.6411
 A-DIIS (wt  0.022):  0.0000  0.0000  0.0000  0.1632  0.8368
  DIIS coefficients: -0.0132 -0.0240  0.0711  0.3208  0.6453
 SCF Error: norm([F,P])=      0.014510245222, max([F,P])=      0.003157938543
 orbitals (Q,E):
 ---------------
 A :1...9            ( 2.00    -0.9838)  ( 2.00    -0.8476)  ( 2.00    -0.5205)  ( 2.00    -0.4805)
                     ( 2.00    -0.3651)  ( 2.00    -0.3401)  ( 2.00    -0.2532)  ( 2.00    -0.2220)
                     ( 0.00    -0.0228)

 CYCLE    7
  SDIIS (wt  1.000):  0.0049 -0.0010 -0.0104  0.0393  0.1052  0.8620
  DIIS coefficients:  0.0049 -0.0010 -0.0104  0.0393  0.1052  0.8620
 SCF Error: norm([F,P])=      0.000464384820, max([F,P])=      0.000127667447
 orbitals (Q,E):
 ---------------
 A :1...9            ( 2.00    -0.9838)  ( 2.00    -0.8476)  ( 2.00    -0.5205)  ( 2.00    -0.4805)
                     ( 2.00    -0.3650)  ( 2.00    -0.3401)  ( 2.00    -0.2532)  ( 2.00    -0.2220)
                     ( 0.00    -0.0228)

 CYCLE    8
  SDIIS (wt  1.000):  0.0007 -0.0003 -0.0013  0.0038  0.0134  0.1578  0.8259
  DIIS coefficients:  0.0007 -0.0003 -0.0013  0.0038  0.0134  0.1578  0.8259
 SCF Error: norm([F,P])=      0.000099515282, max([F,P])=      0.000032257176
 orbitals (Q,E):
 ---------------
 A :1...9            ( 2.00    -0.9838)  ( 2.00    -0.8476)  ( 2.00    -0.5205)  ( 2.00    -0.4805)
                     ( 2.00    -0.3650)  ( 2.00    -0.3401)  ( 2.00    -0.2532)  ( 2.00    -0.2220)
                     ( 0.00    -0.0228)

 CYCLE    9
  SDIIS (wt  1.000):  0.0001 -0.0001 -0.0001  0.0000  0.0013  0.0235  0.2202  0.7551
  DIIS coefficients:  0.0001 -0.0001 -0.0001  0.0000  0.0013  0.0235  0.2202  0.7551
 SCF Error: norm([F,P])=      0.000011193719, max([F,P])=      0.000003403365
 orbitals (Q,E):
 ---------------
 A :1...9            ( 2.00    -0.9838)  ( 2.00    -0.8476)  ( 2.00    -0.5205)  ( 2.00    -0.4805)
                     ( 2.00    -0.3650)  ( 2.00    -0.3401)  ( 2.00    -0.2532)  ( 2.00    -0.2220)
                     ( 0.00    -0.0228)

 CYCLE   10
  SDIIS (wt  1.000):  0.0000  0.0000 -0.0000 -0.0000  0.0001  0.0023  0.0284  0.1529  0.8163
  DIIS coefficients:  0.0000  0.0000 -0.0000 -0.0000  0.0001  0.0023  0.0284  0.1529  0.8163
 SCF Error: norm([F,P])=      0.000002080971, max([F,P])=      0.000000673887
 orbitals (Q,E):
 ---------------
 A :1...9            ( 2.00    -0.9838)  ( 2.00    -0.8476)  ( 2.00    -0.5205)  ( 2.00    -0.4805)
                     ( 2.00    -0.3650)  ( 2.00    -0.3401)  ( 2.00    -0.2532)  ( 2.00    -0.2220)
                     ( 0.00    -0.0228)

 SCF CONVERGED
 cosmo_calcen: 0.5 (esolb+esolc) (Hartrees) =   -0.034725

 Solvation energy (screening term,uncorrected) =    -21.790322 kcal/mol

 Solvation energy (dispersion and cavitation terms) =      0.476177 kcal/mol
 Solvation Energy Contributions (Hartrees)
          esola   esolb+esolc
     0.03472509   -0.06945017
 esol last cycle   -0.03472509

 CYCLE   11
 *** Using FIT density in Focky
  SDIIS (wt  1.000):  0.0000  0.0000 -0.0000 -0.0000  0.0000  0.0003  0.0040  0.0294  0.2375  0.7288
  DIIS coefficients:  0.0000  0.0000 -0.0000 -0.0000  0.0000  0.0003  0.0040  0.0294  0.2375  0.7288
 SCF Error: norm([F,P])=      0.000000278858, max([F,P])=      0.000000069173
 orbitals (Q,E):
 ---------------
 A :1...18           ( 2.00    -0.9838)  ( 2.00    -0.8476)  ( 2.00    -0.5205)  ( 2.00    -0.4805)
                     ( 2.00    -0.3650)  ( 2.00    -0.3401)  ( 2.00    -0.2532)  ( 2.00    -0.2220)
                     ( 0.00    -0.0228)  ( 0.00     0.0290)  ( 0.00     0.0548)  ( 0.00     0.1208)
                     ( 0.00     0.2101)  ( 0.00     0.2210)  ( 0.00     0.2568)  ( 0.00     0.2774)
                     ( 0.00     0.3224)  ( 0.00     0.3824)
 cosmo_calcen: 0.5 (esolb+esolc) (Hartrees) =   -0.034725

 Solvation energy (screening term,uncorrected) =    -21.790323 kcal/mol

 Solvation energy (dispersion and cavitation terms) =      0.476177 kcal/mol
 Solvation Energy Contributions (Hartrees)
          esola   esolb+esolc
     0.03472509   -0.06945017
 esol last cycle   -0.03472509


 Fit test: (difference of exact and fit density, squared integrated, result summed over spins)
         SCF:                                          0.00001895641095

 Gross Charges per Atom (Z minus electrons)
 ==========================================
            -0.8735    0.3313    0.3953    0.3142   -0.5595    0.3922
 Net Total:  0.00000000



 =================================================================
 M U L T I P O L E   D E R I V E D   C H A R G E   A N A L Y S I S
 =================================================================

 See: M. Swart, P.Th. van Duijnen, J.G. Snijders, J.Comput.Chem., (2001), p. 79-88.

 --------------------------------------- 
 Multipole derived atomic charges (a.u.)
 --------------------------------------- 

        Atom    Level:     MDC-m        MDC-d        MDC-q
 ---------------------------------------------------------
     1     O           -0.452533    -0.903520    -0.837892
     2     H            0.064360     0.299277     0.335516
     3     H            0.167065     0.414504     0.320738
     4     H            0.060779     0.351298     0.272778
     5     O           -0.006303    -0.575241    -0.395477
     6     H            0.166631     0.413682     0.304337
 *** Using NEW gradient routines ***


 Geometry CYCLE 2
 ==============

 Energy gradients wrt nuclear displacements
 ==========================================

     Atom      Cartesian (a.u./angstrom)
                 X         Y         Z
 ----------------------------------------
     1 O     0.018482  0.036754  0.022298
     2 H    -0.044532 -0.074982 -0.058424
     3 H     0.001731  0.000782 -0.000023
     4 H     0.002351 -0.000593  0.005574
     5 O     0.022311  0.037613  0.028664
     6 H    -0.000343  0.000426  0.001911
 ----------------------------------------

 dE(predicted):    -0.28244E-02, dE(actual):    -0.53553E-02, Trust radius:    0.489898, all in a.u.
 
----------------------------------------------------------------------
Geometry Convergence after Step   2       (Hartree/Angstrom,Angstrom)
----------------------------------------------------------------------
current energy                               -1.04554468 Hartree
energy change                      -0.00535535     0.00100000    F
constrained gradient max            0.07498216     0.00100000    F
constrained gradient rms            0.02980225     0.00066667    F
gradient max                        0.07498216
gradient rms                        0.02980225
cart. step max                      0.12040506     0.01000000    F
cart. step rms                      0.04613041     0.00666667    F
 


 Coordinates (Cartesian)
 =======================

     Atom                    bohr                                 angstrom                 Geometric Variables
                   X           Y           Z              X           Y           Z       (0:frozen, *:LT par.)
 --------------------------------------------------------------------------------------------------------------
     1 O      -1.197185    3.071023    4.104993      -0.633523    1.625115    2.172269      1       2       3
     2 H      -2.096352    1.915772    2.901383      -1.109342    1.013783    1.535346      4       5       6
     3 H      -2.835758    0.185284   -0.418443      -1.500618    0.098048   -0.221431      7       8       9
     4 H      -1.145781    4.612910    3.117655      -0.606321    2.441047    1.649792     10      11      12
     5 O      -3.281852   -0.005862    1.361556      -1.736682   -0.003102    0.720504     13      14      15
     6 H      -5.118575    0.164869    1.386139      -2.708633    0.087245    0.733513     16      17      18
 --------------------------------------------------------------------------------------------------------------

 Number of elements of the density matrix on this node (used, total):       190      1953



 ===========================================
 Numerical Integration : Fuzzy Cells (Becke)
 ===========================================
  
 Becke grid quality: GOOD           
  
 Lebedev angular grid order:             min:  11 max:  31
 Nr. of radial points:                   min:  54 max:  58

 Total nr. of points:      71849
 Nr. of blocks:              562
 Block length:               128
 Nr. of dummy points:         87


 Test of Precision of the Numerical Integration Grid
 ===================================================

 Integral of the Total Core Density:                   3.99999966734749
 Relative Error:                                      -8.316E-08


 -------------------------------------------
  COSMO surface
  Area             =          254.506
  Volume           =          326.702
  Number of Points =          693
 -------------------------------------------



 ========================
 Density Fitting (zlmFit)
 ========================
  
 ZlmFit Fit Quality: GOOD           
  
 Max L-expansion:                        min:   7 max:   8
 Nr. of radial interpolation points:     min:  72 max:  84



 =====
 S C F  ***  ScaSCF  ***
 =====
  
 Initial density matrix is taken from previous geometry

 CYCLE    1
 SCF Error: norm([F,P])=      0.250191988108, max([F,P])=      0.054590531863
 orbitals (Q,E):
 ---------------
 A :1...18           ( 2.00    -1.0106)  ( 2.00    -0.8379)  ( 2.00    -0.5548)  ( 2.00    -0.4642)
                     ( 2.00    -0.3742)  ( 2.00    -0.3318)  ( 2.00    -0.2454)  ( 2.00    -0.1793)
                     ( 0.00    -0.0639)  ( 0.00     0.0076)  ( 0.00     0.0333)  ( 0.00     0.1320)
                     ( 0.00     0.1817)  ( 0.00     0.1844)  ( 0.00     0.2721)  ( 0.00     0.3129)
                     ( 0.00     0.3235)  ( 0.00     0.3794)

 CYCLE    2
  SDIIS (wt  0.000):  0.4408  0.5592
 A-DIIS (wt  1.000):  0.5661  0.4339
  DIIS coefficients:  0.5661  0.4339
 SCF Error: norm([F,P])=      0.212297809701, max([F,P])=      0.049365355491
 orbitals (Q,E):
 ---------------
 A :1...9            ( 2.00    -0.9813)  ( 2.00    -0.8822)  ( 2.00    -0.5246)  ( 2.00    -0.4666)
                     ( 2.00    -0.3755)  ( 2.00    -0.3386)  ( 2.00    -0.2790)  ( 2.00    -0.2291)
                     ( 0.00    -0.0427)

 CYCLE    3
  SDIIS (wt  0.000):  0.1801  0.2539  0.5660
 A-DIIS (wt  1.000):  0.2654  0.0000  0.7346
  DIIS coefficients:  0.2654  0.0000  0.7346
 SCF Error: norm([F,P])=      0.104598755272, max([F,P])=      0.032651762205
 orbitals (Q,E):
 ---------------
 A :1...9            ( 2.00    -0.9715)  ( 2.00    -0.8635)  ( 2.00    -0.5132)  ( 2.00    -0.4562)
                     ( 2.00    -0.3641)  ( 2.00    -0.3281)  ( 2.00    -0.2649)  ( 2.00    -0.2123)
                     ( 0.00    -0.0298)

 CYCLE    4
  SDIIS (wt  0.000): -0.4019  0.6194  0.7825
 A-DIIS (wt  1.000):  0.0000  0.6653  0.3347
  DIIS coefficients:  0.0000  0.6653  0.3347
 SCF Error: norm([F,P])=      0.160419727269, max([F,P])=      0.048304641890
 orbitals (Q,E):
 ---------------
 A :1...9            ( 2.00    -0.9555)  ( 2.00    -0.8916)  ( 2.00    -0.4957)  ( 2.00    -0.4658)
                     ( 2.00    -0.3679)  ( 2.00    -0.3346)  ( 2.00    -0.2740)  ( 2.00    -0.2440)
                     ( 0.00    -0.0204)

 CYCLE    5
  SDIIS (wt  0.973):  0.0495  0.0444  0.0237  0.8824
 A-DIIS (wt  0.027):  0.0000  0.0000  0.0000  1.0000
  DIIS coefficients:  0.0481  0.0432  0.0230  0.8856
 SCF Error: norm([F,P])=      0.016777923953, max([F,P])=      0.003713359308
 orbitals (Q,E):
 ---------------
 A :1...9            ( 2.00    -0.9600)  ( 2.00    -0.8914)  ( 2.00    -0.5001)  ( 2.00    -0.4664)
                     ( 2.00    -0.3687)  ( 2.00    -0.3353)  ( 2.00    -0.2760)  ( 2.00    -0.2430)
                     ( 0.00    -0.0208)

 CYCLE    6
  SDIIS (wt  0.989):  0.1230 -0.1253 -0.1732  0.5216  0.6539
 A-DIIS (wt  0.011):  0.0000  0.0000  0.0000  0.0000  1.0000
  DIIS coefficients:  0.1216 -0.1239 -0.1713  0.5157  0.6578
 SCF Error: norm([F,P])=      0.007522615216, max([F,P])=      0.002121399692
 orbitals (Q,E):
 ---------------
 A :1...9            ( 2.00    -0.9588)  ( 2.00    -0.8909)  ( 2.00    -0.4992)  ( 2.00    -0.4659)
                     ( 2.00    -0.3682)  ( 2.00    -0.3348)  ( 2.00    -0.2752)  ( 2.00    -0.2427)
                     ( 0.00    -0.0205)

 CYCLE    7
  SDIIS (wt  1.000): -0.0036  0.0030  0.0048 -0.0061  0.1342  0.8677
  DIIS coefficients: -0.0036  0.0030  0.0048 -0.0061  0.1342  0.8677
 SCF Error: norm([F,P])=      0.001242680653, max([F,P])=      0.000328381852
 orbitals (Q,E):
 ---------------
 A :1...9            ( 2.00    -0.9588)  ( 2.00    -0.8909)  ( 2.00    -0.4992)  ( 2.00    -0.4660)
                     ( 2.00    -0.3682)  ( 2.00    -0.3348)  ( 2.00    -0.2752)  ( 2.00    -0.2427)
                     ( 0.00    -0.0205)

 CYCLE    8
  SDIIS (wt  1.000): -0.0006  0.0007  0.0003 -0.0020  0.0238  0.1325  0.8454
  DIIS coefficients: -0.0006  0.0007  0.0003 -0.0020  0.0238  0.1325  0.8454
 SCF Error: norm([F,P])=      0.000123709093, max([F,P])=      0.000035855326
 orbitals (Q,E):
 ---------------
 A :1...9            ( 2.00    -0.9588)  ( 2.00    -0.8909)  ( 2.00    -0.4992)  ( 2.00    -0.4660)
                     ( 2.00    -0.3682)  ( 2.00    -0.3348)  ( 2.00    -0.2752)  ( 2.00    -0.2427)
                     ( 0.00    -0.0205)

 CYCLE    9
  SDIIS (wt  1.000): -0.0001  0.0001 -0.0001 -0.0004  0.0047  0.0206  0.2457  0.7294
  DIIS coefficients: -0.0001  0.0001 -0.0001 -0.0004  0.0047  0.0206  0.2457  0.7294
 SCF Error: norm([F,P])=      0.000015753465, max([F,P])=      0.000004097091
 orbitals (Q,E):
 ---------------
 A :1...9            ( 2.00    -0.9588)  ( 2.00    -0.8909)  ( 2.00    -0.4992)  ( 2.00    -0.4660)
                     ( 2.00    -0.3682)  ( 2.00    -0.3348)  ( 2.00    -0.2752)  ( 2.00    -0.2427)
                     ( 0.00    -0.0205)

 CYCLE   10
  SDIIS (wt  1.000):  0.0000 -0.0000 -0.0000 -0.0000  0.0004  0.0019  0.0247  0.0946  0.8784
  DIIS coefficients:  0.0000 -0.0000 -0.0000 -0.0000  0.0004  0.0019  0.0247  0.0946  0.8784
 SCF Error: norm([F,P])=      0.000001510279, max([F,P])=      0.000000413552
 orbitals (Q,E):
 ---------------
 A :1...9            ( 2.00    -0.9588)  ( 2.00    -0.8909)  ( 2.00    -0.4992)  ( 2.00    -0.4660)
                     ( 2.00    -0.3682)  ( 2.00    -0.3348)  ( 2.00    -0.2752)  ( 2.00    -0.2427)
                     ( 0.00    -0.0205)

 SCF CONVERGED
 cosmo_calcen: 0.5 (esolb+esolc) (Hartrees) =   -0.026557

 Solvation energy (screening term,uncorrected) =    -16.664529 kcal/mol

 Solvation energy (dispersion and cavitation terms) =      0.475907 kcal/mol
 Solvation Energy Contributions (Hartrees)
          esola   esolb+esolc
     0.02655661   -0.05311323
 esol last cycle   -0.02655661

 CYCLE   11
 *** Using FIT density in Focky
  SDIIS (wt  1.000):  0.0000 -0.0000 -0.0000 -0.0000  0.0000  0.0001  0.0023  0.0124  0.2542  0.7310
  DIIS coefficients:  0.0000 -0.0000 -0.0000 -0.0000  0.0000  0.0001  0.0023  0.0124  0.2542  0.7310
 SCF Error: norm([F,P])=      0.000000322425, max([F,P])=      0.000000077022
 orbitals (Q,E):
 ---------------
 A :1...18           ( 2.00    -0.9588)  ( 2.00    -0.8909)  ( 2.00    -0.4992)  ( 2.00    -0.4660)
                     ( 2.00    -0.3682)  ( 2.00    -0.3348)  ( 2.00    -0.2752)  ( 2.00    -0.2427)
                     ( 0.00    -0.0205)  ( 0.00     0.0294)  ( 0.00     0.0585)  ( 0.00     0.1198)
                     ( 0.00     0.2197)  ( 0.00     0.2319)  ( 0.00     0.2536)  ( 0.00     0.3046)
                     ( 0.00     0.3255)  ( 0.00     0.3802)
 cosmo_calcen: 0.5 (esolb+esolc) (Hartrees) =   -0.026557

 Solvation energy (screening term,uncorrected) =    -16.664528 kcal/mol

 Solvation energy (dispersion and cavitation terms) =      0.475907 kcal/mol
 Solvation Energy Contributions (Hartrees)
          esola   esolb+esolc
     0.02655661   -0.05311323
 esol last cycle   -0.02655661


 Fit test: (difference of exact and fit density, squared integrated, result summed over spins)
         SCF:                                          0.00001853433151

 Gross Charges per Atom (Z minus electrons)
 ==========================================
            -0.7942    0.3648    0.3890    0.3175   -0.6629    0.3857
 Net Total:  0.00000000



 =================================================================
 M U L T I P O L E   D E R I V E D   C H A R G E   A N A L Y S I S
 =================================================================

 See: M. Swart, P.Th. van Duijnen, J.G. Snijders, J.Comput.Chem., (2001), p. 79-88.

 --------------------------------------- 
 Multipole derived atomic charges (a.u.)
 --------------------------------------- 

        Atom    Level:     MDC-m        MDC-d        MDC-q
 ---------------------------------------------------------
     1     O           -0.327870    -0.811252    -0.737087
     2     H            0.037683     0.302162     0.318201
     3     H            0.144392     0.400140     0.314685
     4     H            0.084184     0.362743     0.275666
     5     O           -0.082408    -0.652963    -0.472188
     6     H            0.144018     0.399171     0.300723
 *** Using NEW gradient routines ***


 Geometry CYCLE 3
 ==============

 Energy gradients wrt nuclear displacements
 ==========================================

     Atom      Cartesian (a.u./angstrom)
                 X         Y         Z
 ----------------------------------------
     1 O    -0.014940 -0.021247 -0.020074
     2 H    -0.002919  0.004300 -0.008067
     3 H     0.000775  0.001225  0.002636
     4 H    -0.005265 -0.016245 -0.001272
     5 O     0.019652  0.030911  0.025096
     6 H     0.002698  0.001055  0.001681
 ----------------------------------------

 dE(predicted):    -0.15974E-01, dE(actual):    -0.12288E-01, Trust radius:    0.979796, all in a.u.
 
----------------------------------------------------------------------
Geometry Convergence after Step   3       (Hartree/Angstrom,Angstrom)
----------------------------------------------------------------------
current energy                               -1.05783280 Hartree
energy change                      -0.01228812     0.00100000    F
constrained gradient max            0.03091094     0.00100000    F
constrained gradient rms            0.01385382     0.00066667    F
gradient max                        0.03091094
gradient rms                        0.01385382
cart. step max                      0.04529803     0.01000000    F
cart. step rms                      0.02921156     0.00666667    F
 


 Coordinates (Cartesian)
 =======================

     Atom                    bohr                                 angstrom                 Geometric Variables
                   X           Y           Z              X           Y           Z       (0:frozen, *:LT par.)
 --------------------------------------------------------------------------------------------------------------
     1 O      -1.143180    3.120894    4.138159      -0.604945    1.651506    2.189819      1       2       3
     2 H      -2.055724    1.971241    2.945712      -1.087842    1.043136    1.558804      4       5       6
     3 H      -2.883412    0.103263   -0.468007      -1.525836    0.054645   -0.247659      7       8       9
     4 H      -1.103647    4.698511    3.193291      -0.584025    2.486345    1.689817     10      11      12
     5 O      -3.325718   -0.057055    1.316396      -1.759894   -0.030192    0.696607     13      14      15
     6 H      -5.163823    0.107141    1.327731      -2.732577    0.056697    0.702605     16      17      18
 --------------------------------------------------------------------------------------------------------------

 Number of elements of the density matrix on this node (used, total):       190      1953



 ===========================================
 Numerical Integration : Fuzzy Cells (Becke)
 ===========================================
  
 Becke grid quality: GOOD           
  
 Lebedev angular grid order:             min:  11 max:  31
 Nr. of radial points:                   min:  54 max:  58

 Total nr. of points:      71850
 Nr. of blocks:              562
 Block length:               128
 Nr. of dummy points:         86


 Test of Precision of the Numerical Integration Grid
 ===================================================

 Integral of the Total Core Density:                   3.99999900407792
 Relative Error:                                      -2.490E-07


 -------------------------------------------
  COSMO surface
  Area             =          257.742
  Volume           =          329.691
  Number of Points =          706
 -------------------------------------------



 ========================
 Density Fitting (zlmFit)
 ========================
  
 ZlmFit Fit Quality: GOOD           
  
 Max L-expansion:                        min:   7 max:   8
 Nr. of radial interpolation points:     min:  72 max:  84



 =====
 S C F  ***  ScaSCF  ***
 =====
  
 Initial density matrix is taken from previous geometry

 CYCLE    1
 SCF Error: norm([F,P])=      0.105180904386, max([F,P])=      0.017981332784
 orbitals (Q,E):
 ---------------
 A :1...18           ( 2.00    -0.9869)  ( 2.00    -0.8653)  ( 2.00    -0.5328)  ( 2.00    -0.4542)
                     ( 2.00    -0.3744)  ( 2.00    -0.3298)  ( 2.00    -0.2679)  ( 2.00    -0.2072)
                     ( 0.00    -0.0577)  ( 0.00     0.0143)  ( 0.00     0.0221)  ( 0.00     0.1270)
                     ( 0.00     0.1894)  ( 0.00     0.1931)  ( 0.00     0.2559)  ( 0.00     0.2996)
                     ( 0.00     0.3134)  ( 0.00     0.3756)

 CYCLE    2
  SDIIS (wt  0.000):  0.6103  0.3897
 A-DIIS (wt  1.000):  0.0000  1.0000
  DIIS coefficients:  0.0000  1.0000
 SCF Error: norm([F,P])=      0.155523637107, max([F,P])=      0.030370600855
 orbitals (Q,E):
 ---------------
 A :1...9            ( 2.00    -0.9599)  ( 2.00    -0.9224)  ( 2.00    -0.4986)  ( 2.00    -0.4838)
                     ( 2.00    -0.3877)  ( 2.00    -0.3551)  ( 2.00    -0.2932)  ( 2.00    -0.2775)
                     ( 0.00    -0.0235)

 CYCLE    3
  SDIIS (wt  0.000):  0.3987  0.4383  0.1630
 A-DIIS (wt  1.000):  0.0000  0.5882  0.4118
  DIIS coefficients:  0.0000  0.5882  0.4118
 SCF Error: norm([F,P])=      0.264253030803, max([F,P])=      0.079448033313
 orbitals (Q,E):
 ---------------
 A :1...9            ( 2.00    -0.9481)  ( 2.00    -0.8866)  ( 2.00    -0.4904)  ( 2.00    -0.4580)
                     ( 2.00    -0.3648)  ( 2.00    -0.3274)  ( 2.00    -0.2730)  ( 2.00    -0.2388)
                     ( 0.00    -0.0202)

 CYCLE    4
  SDIIS (wt  0.827):  0.1432  0.2037  0.6531
 A-DIIS (wt  0.173):  0.0000  0.0000  1.0000
  DIIS coefficients:  0.1185  0.1686  0.7130
 SCF Error: norm([F,P])=      0.060395308812, max([F,P])=      0.018090538985
 orbitals (Q,E):
 ---------------
 A :1...9            ( 2.00    -0.9529)  ( 2.00    -0.8981)  ( 2.00    -0.4945)  ( 2.00    -0.4654)
                     ( 2.00    -0.3697)  ( 2.00    -0.3337)  ( 2.00    -0.2788)  ( 2.00    -0.2495)
                     ( 0.00    -0.0212)

 CYCLE    5
  SDIIS (wt  0.927):  0.0422  0.0513  0.3623  0.5441
 A-DIIS (wt  0.073):  0.0000  0.0000  0.1818  0.8182
  DIIS coefficients:  0.0392  0.0476  0.3492  0.5640
 SCF Error: norm([F,P])=      0.025465327864, max([F,P])=      0.008183865165
 orbitals (Q,E):
 ---------------
 A :1...9            ( 2.00    -0.9539)  ( 2.00    -0.8944)  ( 2.00    -0.4955)  ( 2.00    -0.4635)
                     ( 2.00    -0.3695)  ( 2.00    -0.3325)  ( 2.00    -0.2787)  ( 2.00    -0.2458)
                     ( 0.00    -0.0210)

 CYCLE    6
  SDIIS (wt  0.986):  0.0029 -0.0041  0.1211  0.4064  0.4738
 A-DIIS (wt  0.014):  0.0000  0.0000  0.0000  0.0645  0.9355
  DIIS coefficients:  0.0028 -0.0040  0.1194  0.4016  0.4803
 SCF Error: norm([F,P])=      0.008855789642, max([F,P])=      0.002391591901
 orbitals (Q,E):
 ---------------
 A :1...9            ( 2.00    -0.9527)  ( 2.00    -0.8946)  ( 2.00    -0.4946)  ( 2.00    -0.4634)
                     ( 2.00    -0.3689)  ( 2.00    -0.3322)  ( 2.00    -0.2780)  ( 2.00    -0.2461)
                     ( 0.00    -0.0207)

 CYCLE    7
  SDIIS (wt  1.000): -0.0008 -0.0021  0.0028  0.0521  0.1007  0.8473
  DIIS coefficients: -0.0008 -0.0021  0.0028  0.0521  0.1007  0.8473
 SCF Error: norm([F,P])=      0.000686727768, max([F,P])=      0.000134678307
 orbitals (Q,E):
 ---------------
 A :1...9            ( 2.00    -0.9528)  ( 2.00    -0.8947)  ( 2.00    -0.4946)  ( 2.00    -0.4634)
                     ( 2.00    -0.3689)  ( 2.00    -0.3323)  ( 2.00    -0.2780)  ( 2.00    -0.2462)
                     ( 0.00    -0.0207)

 CYCLE    8
  SDIIS (wt  1.000): -0.0002 -0.0005  0.0001  0.0137  0.0299  0.2602  0.6969
  DIIS coefficients: -0.0002 -0.0005  0.0001  0.0137  0.0299  0.2602  0.6969
 SCF Error: norm([F,P])=      0.000060550144, max([F,P])=      0.000018911590
 orbitals (Q,E):
 ---------------
 A :1...9            ( 2.00    -0.9528)  ( 2.00    -0.8947)  ( 2.00    -0.4946)  ( 2.00    -0.4634)
                     ( 2.00    -0.3690)  ( 2.00    -0.3323)  ( 2.00    -0.2780)  ( 2.00    -0.2462)
                     ( 0.00    -0.0207)

 CYCLE    9
  SDIIS (wt  1.000): -0.0000 -0.0000 -0.0001  0.0008  0.0028  0.0208  0.1177  0.8579
  DIIS coefficients: -0.0000 -0.0000 -0.0001  0.0008  0.0028  0.0208  0.1177  0.8579
 SCF Error: norm([F,P])=      0.000007586712, max([F,P])=      0.000001954552
 orbitals (Q,E):
 ---------------
 A :1...9            ( 2.00    -0.9528)  ( 2.00    -0.8947)  ( 2.00    -0.4946)  ( 2.00    -0.4634)
                     ( 2.00    -0.3690)  ( 2.00    -0.3323)  ( 2.00    -0.2780)  ( 2.00    -0.2462)
                     ( 0.00    -0.0207)

 CYCLE   10
  SDIIS (wt  1.000): -0.0000 -0.0000 -0.0000  0.0001  0.0003  0.0022  0.0186  0.1881  0.7907
  DIIS coefficients: -0.0000 -0.0000 -0.0000  0.0001  0.0003  0.0022  0.0186  0.1881  0.7907
 SCF Error: norm([F,P])=      0.000000892668, max([F,P])=      0.000000192117
 orbitals (Q,E):
 ---------------
 A :1...9            ( 2.00    -0.9528)  ( 2.00    -0.8947)  ( 2.00    -0.4946)  ( 2.00    -0.4634)
                     ( 2.00    -0.3690)  ( 2.00    -0.3323)  ( 2.00    -0.2780)  ( 2.00    -0.2462)
                     ( 0.00    -0.0207)

 SCF CONVERGED
 cosmo_calcen: 0.5 (esolb+esolc) (Hartrees) =   -0.025265

 Solvation energy (screening term,uncorrected) =    -15.854064 kcal/mol

 Solvation energy (dispersion and cavitation terms) =      0.481958 kcal/mol
 Solvation Energy Contributions (Hartrees)
          esola   esolb+esolc
     0.02526506   -0.05053011
 esol last cycle   -0.02526506

 CYCLE   11
 *** Using FIT density in Focky
  SDIIS (wt  1.000): -0.0000 -0.0000 -0.0000 -0.0000  0.0000  0.0000  0.0015  0.0228  0.1852  0.7905
  DIIS coefficients: -0.0000 -0.0000 -0.0000 -0.0000  0.0000  0.0000  0.0015  0.0228  0.1852  0.7905
 SCF Error: norm([F,P])=      0.000000172751, max([F,P])=      0.000000039264
 orbitals (Q,E):
 ---------------
 A :1...18           ( 2.00    -0.9528)  ( 2.00    -0.8947)  ( 2.00    -0.4946)  ( 2.00    -0.4634)
                     ( 2.00    -0.3690)  ( 2.00    -0.3323)  ( 2.00    -0.2780)  ( 2.00    -0.2462)
                     ( 0.00    -0.0207)  ( 0.00     0.0273)  ( 0.00     0.0591)  ( 0.00     0.1192)
                     ( 0.00     0.2197)  ( 0.00     0.2318)  ( 0.00     0.2501)  ( 0.00     0.2929)
                     ( 0.00     0.3171)  ( 0.00     0.3770)
 cosmo_calcen: 0.5 (esolb+esolc) (Hartrees) =   -0.025265

 Solvation energy (screening term,uncorrected) =    -15.854063 kcal/mol

 Solvation energy (dispersion and cavitation terms) =      0.481958 kcal/mol
 Solvation Energy Contributions (Hartrees)
          esola   esolb+esolc
     0.02526505   -0.05053011
 esol last cycle   -0.02526505


 Fit test: (difference of exact and fit density, squared integrated, result summed over spins)
         SCF:                                          0.00001843926929

 Gross Charges per Atom (Z minus electrons)
 ==========================================
            -0.7813    0.3685    0.3894    0.3215   -0.6850    0.3869
 Net Total:  0.00000000



 =================================================================
 M U L T I P O L E   D E R I V E D   C H A R G E   A N A L Y S I S
 =================================================================

 See: M. Swart, P.Th. van Duijnen, J.G. Snijders, J.Comput.Chem., (2001), p. 79-88.

 --------------------------------------- 
 Multipole derived atomic charges (a.u.)
 --------------------------------------- 

        Atom    Level:     MDC-m        MDC-d        MDC-q
 ---------------------------------------------------------
     1     O           -0.314767    -0.794567    -0.714100
     2     H            0.045526     0.300901     0.298372
     3     H            0.140749     0.397744     0.312834
     4     H            0.090911     0.366584     0.285054
     5     O           -0.102882    -0.667480    -0.484184
     6     H            0.140463     0.396819     0.302024
 *** Using NEW gradient routines ***


 Geometry CYCLE 4
 ==============

 Energy gradients wrt nuclear displacements
 ==========================================

     Atom      Cartesian (a.u./angstrom)
                 X         Y         Z
 ----------------------------------------
     1 O    -0.008767 -0.015087 -0.010228
     2 H    -0.002180  0.002235 -0.004284
     3 H    -0.000227  0.000496  0.001606
     4 H    -0.002957 -0.006913 -0.002506
     5 O     0.012465  0.018790  0.014980
     6 H     0.001666  0.000478  0.000432
 ----------------------------------------

 dE(predicted):    -0.22795E-02, dE(actual):    -0.35598E-02, Trust radius:    0.979796, all in a.u.
 
----------------------------------------------------------------------
Geometry Convergence after Step   4       (Hartree/Angstrom,Angstrom)
----------------------------------------------------------------------
current energy                               -1.06139258 Hartree
energy change                      -0.00355978     0.00100000    F
constrained gradient max            0.01879046     0.00100000    F
constrained gradient rms            0.00829632     0.00066667    F
gradient max                        0.01879046
gradient rms                        0.00829632
cart. step max                      0.06400898     0.01000000    F
cart. step rms                      0.04139491     0.00666667    F
 


 Coordinates (Cartesian)
 =======================

     Atom                    bohr                                 angstrom                 Geometric Variables
                   X           Y           Z              X           Y           Z       (0:frozen, *:LT par.)
 --------------------------------------------------------------------------------------------------------------
     1 O      -1.064450    3.193721    4.180194      -0.563283    1.690045    2.212063      1       2       3
     2 H      -1.989494    2.048605    3.002688      -1.052795    1.084075    1.588954      4       5       6
     3 H      -2.947038   -0.017696   -0.536754      -1.559505   -0.009364   -0.284038      7       8       9
     4 H      -1.053698    4.817164    3.307769      -0.557593    2.549134    1.750396     10      11      12
     5 O      -3.390684   -0.132245    1.252456      -1.794272   -0.069981    0.662771     13      14      15
     6 H      -5.230139    0.034446    1.246929      -2.767670    0.018228    0.659847     16      17      18
 --------------------------------------------------------------------------------------------------------------

 Number of elements of the density matrix on this node (used, total):       190      1953



 ===========================================
 Numerical Integration : Fuzzy Cells (Becke)
 ===========================================
  
 Becke grid quality: GOOD           
  
 Lebedev angular grid order:             min:  11 max:  31
 Nr. of radial points:                   min:  54 max:  58

 Total nr. of points:      71849
 Nr. of blocks:              562
 Block length:               128
 Nr. of dummy points:         87


 Test of Precision of the Numerical Integration Grid
 ===================================================

 Integral of the Total Core Density:                   3.99999851495676
 Relative Error:                                      -3.713E-07


 -------------------------------------------
  COSMO surface
  Area             =          261.654
  Volume           =          333.974
  Number of Points =          715
 -------------------------------------------



 ========================
 Density Fitting (zlmFit)
 ========================
  
 ZlmFit Fit Quality: GOOD           
  
 Max L-expansion:                        min:   7 max:   8
 Nr. of radial interpolation points:     min:  72 max:  84



 =====
 S C F  ***  ScaSCF  ***
 =====
  
 Initial density matrix is taken from previous geometry

 CYCLE    1
 SCF Error: norm([F,P])=      0.108713615430, max([F,P])=      0.017412101294
 orbitals (Q,E):
 ---------------
 A :1...18           ( 2.00    -0.9805)  ( 2.00    -0.8715)  ( 2.00    -0.5273)  ( 2.00    -0.4495)
                     ( 2.00    -0.3801)  ( 2.00    -0.3245)  ( 2.00    -0.2757)  ( 2.00    -0.2135)
                     ( 0.00    -0.0567)  ( 0.00     0.0151)  ( 0.00     0.0189)  ( 0.00     0.1239)
                     ( 0.00     0.1898)  ( 0.00     0.1940)  ( 0.00     0.2504)  ( 0.00     0.2779)
                     ( 0.00     0.3136)  ( 0.00     0.3725)

 CYCLE    2
  SDIIS (wt  0.000):  0.5907  0.4093
 A-DIIS (wt  1.000):  0.0000  1.0000
  DIIS coefficients:  0.0000  1.0000
 SCF Error: norm([F,P])=      0.148395707057, max([F,P])=      0.029721711856
 orbitals (Q,E):
 ---------------
 A :1...9            ( 2.00    -0.9523)  ( 2.00    -0.9263)  ( 2.00    -0.4928)  ( 2.00    -0.4844)
                     ( 2.00    -0.3836)  ( 2.00    -0.3542)  ( 2.00    -0.2914)  ( 2.00    -0.2803)
                     ( 0.00    -0.0238)

 CYCLE    3
  SDIIS (wt  0.000):  0.3696  0.4535  0.1768
 A-DIIS (wt  1.000):  0.0000  0.5862  0.4138
  DIIS coefficients:  0.0000  0.5862  0.4138
 SCF Error: norm([F,P])=      0.251617872434, max([F,P])=      0.075546042816
 orbitals (Q,E):
 ---------------
 A :1...9            ( 2.00    -0.9412)  ( 2.00    -0.8919)  ( 2.00    -0.4851)  ( 2.00    -0.4581)
                     ( 2.00    -0.3642)  ( 2.00    -0.3250)  ( 2.00    -0.2748)  ( 2.00    -0.2433)
                     ( 0.00    -0.0206)

 CYCLE    4
  SDIIS (wt  0.832):  0.1406  0.2072  0.6522
 A-DIIS (wt  0.168):  0.0000  0.0008  0.9992
  DIIS coefficients:  0.1170  0.1725  0.7105
 SCF Error: norm([F,P])=      0.059125471088, max([F,P])=      0.017629917499
 orbitals (Q,E):
 ---------------
 A :1...9            ( 2.00    -0.9462)  ( 2.00    -0.9030)  ( 2.00    -0.4893)  ( 2.00    -0.4659)
                     ( 2.00    -0.3684)  ( 2.00    -0.3320)  ( 2.00    -0.2799)  ( 2.00    -0.2536)
                     ( 0.00    -0.0217)

 CYCLE    5
  SDIIS (wt  0.934):  0.0356  0.0414  0.3348  0.5882
 A-DIIS (wt  0.066):  0.0000  0.0000  0.1614  0.8386
  DIIS coefficients:  0.0332  0.0386  0.3233  0.6048
 SCF Error: norm([F,P])=      0.023328410555, max([F,P])=      0.007565891941
 orbitals (Q,E):
 ---------------
 A :1...9            ( 2.00    -0.9469)  ( 2.00    -0.8995)  ( 2.00    -0.4900)  ( 2.00    -0.4637)
                     ( 2.00    -0.3685)  ( 2.00    -0.3302)  ( 2.00    -0.2800)  ( 2.00    -0.2501)
                     ( 0.00    -0.0214)

 CYCLE    6
  SDIIS (wt  0.988):  0.0028 -0.0050  0.1234  0.4351  0.4436
 A-DIIS (wt  0.012):  0.0000  0.0000  0.0000  0.0560  0.9440
  DIIS coefficients:  0.0028 -0.0049  0.1219  0.4305  0.4498
 SCF Error: norm([F,P])=      0.008146094423, max([F,P])=      0.002216253761
 orbitals (Q,E):
 ---------------
 A :1...9            ( 2.00    -0.9458)  ( 2.00    -0.8997)  ( 2.00    -0.4892)  ( 2.00    -0.4638)
                     ( 2.00    -0.3679)  ( 2.00    -0.3302)  ( 2.00    -0.2793)  ( 2.00    -0.2505)
                     ( 0.00    -0.0213)

 CYCLE    7
  SDIIS (wt  1.000): -0.0008 -0.0023  0.0033  0.0572  0.1044  0.8382
  DIIS coefficients: -0.0008 -0.0023  0.0033  0.0572  0.1044  0.8382
 SCF Error: norm([F,P])=      0.000683987174, max([F,P])=      0.000149091240
 orbitals (Q,E):
 ---------------
 A :1...9            ( 2.00    -0.9459)  ( 2.00    -0.8998)  ( 2.00    -0.4892)  ( 2.00    -0.4638)
                     ( 2.00    -0.3679)  ( 2.00    -0.3302)  ( 2.00    -0.2793)  ( 2.00    -0.2505)
                     ( 0.00    -0.0213)

 CYCLE    8
  SDIIS (wt  1.000): -0.0002 -0.0006  0.0003  0.0153  0.0314  0.2612  0.6927
  DIIS coefficients: -0.0002 -0.0006  0.0003  0.0153  0.0314  0.2612  0.6927
 SCF Error: norm([F,P])=      0.000060007602, max([F,P])=      0.000018423155
 orbitals (Q,E):
 ---------------
 A :1...9            ( 2.00    -0.9459)  ( 2.00    -0.8998)  ( 2.00    -0.4892)  ( 2.00    -0.4638)
                     ( 2.00    -0.3679)  ( 2.00    -0.3302)  ( 2.00    -0.2794)  ( 2.00    -0.2505)
                     ( 0.00    -0.0213)

 CYCLE    9
  SDIIS (wt  1.000): -0.0000 -0.0000 -0.0001  0.0010  0.0029  0.0204  0.1099  0.8660
  DIIS coefficients: -0.0000 -0.0000 -0.0001  0.0010  0.0029  0.0204  0.1099  0.8660
 SCF Error: norm([F,P])=      0.000006738994, max([F,P])=      0.000001812391
 orbitals (Q,E):
 ---------------
 A :1...9            ( 2.00    -0.9459)  ( 2.00    -0.8998)  ( 2.00    -0.4892)  ( 2.00    -0.4638)
                     ( 2.00    -0.3679)  ( 2.00    -0.3302)  ( 2.00    -0.2794)  ( 2.00    -0.2505)
                     ( 0.00    -0.0213)

 CYCLE   10
  SDIIS (wt  1.000): -0.0000 -0.0000 -0.0000  0.0001  0.0003  0.0017  0.0140  0.1620  0.8220
  DIIS coefficients: -0.0000 -0.0000 -0.0000  0.0001  0.0003  0.0017  0.0140  0.1620  0.8220
 SCF Error: norm([F,P])=      0.000000818736, max([F,P])=      0.000000198962
 orbitals (Q,E):
 ---------------
 A :1...9            ( 2.00    -0.9459)  ( 2.00    -0.8998)  ( 2.00    -0.4892)  ( 2.00    -0.4638)
                     ( 2.00    -0.3679)  ( 2.00    -0.3302)  ( 2.00    -0.2794)  ( 2.00    -0.2505)
                     ( 0.00    -0.0213)

 SCF CONVERGED
 cosmo_calcen: 0.5 (esolb+esolc) (Hartrees) =   -0.023735

 Solvation energy (screening term,uncorrected) =    -14.893985 kcal/mol

 Solvation energy (dispersion and cavitation terms) =      0.489272 kcal/mol
 Solvation Energy Contributions (Hartrees)
          esola   esolb+esolc
     0.02373507   -0.04747015
 esol last cycle   -0.02373507

 CYCLE   11
 *** Using FIT density in Focky
  SDIIS (wt  1.000): -0.0000 -0.0000 -0.0000 -0.0000  0.0000  0.0000  0.0012  0.0222  0.2042  0.7724
  DIIS coefficients: -0.0000 -0.0000 -0.0000 -0.0000  0.0000  0.0000  0.0012  0.0222  0.2042  0.7724
 SCF Error: norm([F,P])=      0.000000145049, max([F,P])=      0.000000032079
 orbitals (Q,E):
 ---------------
 A :1...18           ( 2.00    -0.9459)  ( 2.00    -0.8998)  ( 2.00    -0.4892)  ( 2.00    -0.4638)
                     ( 2.00    -0.3679)  ( 2.00    -0.3302)  ( 2.00    -0.2794)  ( 2.00    -0.2505)
                     ( 0.00    -0.0213)  ( 0.00     0.0248)  ( 0.00     0.0596)  ( 0.00     0.1172)
                     ( 0.00     0.2198)  ( 0.00     0.2300)  ( 0.00     0.2476)  ( 0.00     0.2727)
                     ( 0.00     0.3139)  ( 0.00     0.3743)
 cosmo_calcen: 0.5 (esolb+esolc) (Hartrees) =   -0.023735

 Solvation energy (screening term,uncorrected) =    -14.893984 kcal/mol

 Solvation energy (dispersion and cavitation terms) =      0.489272 kcal/mol
 Solvation Energy Contributions (Hartrees)
          esola   esolb+esolc
     0.02373507   -0.04747014
 esol last cycle   -0.02373507


 Fit test: (difference of exact and fit density, squared integrated, result summed over spins)
         SCF:                                          0.00001857407999

 Gross Charges per Atom (Z minus electrons)
 ==========================================
            -0.7664    0.3717    0.3893    0.3271   -0.7093    0.3876
 Net Total: -0.00000000



 =================================================================
 M U L T I P O L E   D E R I V E D   C H A R G E   A N A L Y S I S
 =================================================================

 See: M. Swart, P.Th. van Duijnen, J.G. Snijders, J.Comput.Chem., (2001), p. 79-88.

 --------------------------------------- 
 Multipole derived atomic charges (a.u.)
 --------------------------------------- 

        Atom    Level:     MDC-m        MDC-d        MDC-q
 ---------------------------------------------------------
     1     O           -0.298667    -0.777368    -0.690939
     2     H            0.055645     0.301865     0.279303
     3     H            0.136546     0.394502     0.309262
     4     H            0.098220     0.372017     0.299477
     5     O           -0.128082    -0.684839    -0.499819
     6     H            0.136338     0.393823     0.302715
 *** Using NEW gradient routines ***


 Geometry CYCLE 5
 ==============

 Energy gradients wrt nuclear displacements
 ==========================================

     Atom      Cartesian (a.u./angstrom)
                 X         Y         Z
 ----------------------------------------
     1 O    -0.003849 -0.005670 -0.005098
     2 H    -0.001465 -0.001930 -0.000417
     3 H    -0.000667 -0.000101 -0.000472
     4 H     0.000105  0.000100 -0.000320
     5 O     0.006099  0.007663  0.006839
     6 H    -0.000224 -0.000062 -0.000532
 ----------------------------------------

 dE(predicted):    -0.19093E-02, dE(actual):    -0.24674E-02, Trust radius:    0.979796, all in a.u.
 
----------------------------------------------------------------------
Geometry Convergence after Step   5       (Hartree/Angstrom,Angstrom)
----------------------------------------------------------------------
current energy                               -1.06385999 Hartree
energy change                      -0.00246741     0.00100000    F
constrained gradient max            0.00766292     0.00100000    F
constrained gradient rms            0.00351841     0.00066667    F
gradient max                        0.00766292
gradient rms                        0.00351841
cart. step max                      0.00901383     0.01000000    T
cart. step rms                      0.00521115     0.00666667    T
 


 Coordinates (Cartesian)
 =======================

     Atom                    bohr                                 angstrom                 Geometric Variables
                   X           Y           Z              X           Y           Z       (0:frozen, *:LT par.)
 --------------------------------------------------------------------------------------------------------------
     1 O      -1.051740    3.198662    4.185227      -0.556557    1.692659    2.214727      1       2       3
     2 H      -1.975152    2.065638    3.016600      -1.045205    1.093089    1.596316      4       5       6
     3 H      -2.953910   -0.032164   -0.544203      -1.563142   -0.017020   -0.287980      7       8       9
     4 H      -1.057440    4.823208    3.315505      -0.559573    2.552332    1.754490     10      11      12
     5 O      -3.399201   -0.140436    1.244632      -1.798780   -0.074316    0.658631     13      14      15
     6 H      -5.238059    0.029088    1.235521      -2.771862    0.015392    0.653810     16      17      18
 --------------------------------------------------------------------------------------------------------------

 Number of elements of the density matrix on this node (used, total):       190      1953



 ===========================================
 Numerical Integration : Fuzzy Cells (Becke)
 ===========================================
  
 Becke grid quality: GOOD           
  
 Lebedev angular grid order:             min:  11 max:  31
 Nr. of radial points:                   min:  54 max:  58

 Total nr. of points:      71850
 Nr. of blocks:              562
 Block length:               128
 Nr. of dummy points:         86


 Test of Precision of the Numerical Integration Grid
 ===================================================

 Integral of the Total Core Density:                   3.99999853606645
 Relative Error:                                      -3.660E-07


 -------------------------------------------
  COSMO surface
  Area             =          262.009
  Volume           =          334.312
  Number of Points =          714
 -------------------------------------------



 ========================
 Density Fitting (zlmFit)
 ========================
  
 ZlmFit Fit Quality: GOOD           
  
 Max L-expansion:                        min:   7 max:   8
 Nr. of radial interpolation points:     min:  72 max:  84



 =====
 S C F  ***  ScaSCF  ***
 =====
  
 Initial density matrix is taken from previous geometry

 CYCLE    1
 SCF Error: norm([F,P])=      0.084734150943, max([F,P])=      0.017658053553
 orbitals (Q,E):
 ---------------
 A :1...18           ( 2.00    -0.9713)  ( 2.00    -0.8749)  ( 2.00    -0.5185)  ( 2.00    -0.4468)
                     ( 2.00    -0.3749)  ( 2.00    -0.3182)  ( 2.00    -0.2758)  ( 2.00    -0.2155)
                     ( 0.00    -0.0519)  ( 0.00     0.0171)  ( 0.00     0.0224)  ( 0.00     0.1263)
                     ( 0.00     0.1959)  ( 0.00     0.1996)  ( 0.00     0.2510)  ( 0.00     0.2823)
                     ( 0.00     0.3175)  ( 0.00     0.3763)

 CYCLE    2
  SDIIS (wt  0.000):  0.6288  0.3712
 A-DIIS (wt  1.000):  0.6368  0.3632
  DIIS coefficients:  0.6368  0.3632
 SCF Error: norm([F,P])=      0.137726186480, max([F,P])=      0.026856677668
 orbitals (Q,E):
 ---------------
 A :1...9            ( 2.00    -0.9648)  ( 2.00    -0.8927)  ( 2.00    -0.5098)  ( 2.00    -0.4583)
                     ( 2.00    -0.3780)  ( 2.00    -0.3266)  ( 2.00    -0.2874)  ( 2.00    -0.2372)
                     ( 0.00    -0.0404)

 CYCLE    3
  SDIIS (wt  0.000):  0.4476  0.1741  0.3782
 A-DIIS (wt  1.000):  0.3272  0.0000  0.6728
  DIIS coefficients:  0.3272  0.0000  0.6728
 SCF Error: norm([F,P])=      0.057323227272, max([F,P])=      0.011943059848
 orbitals (Q,E):
 ---------------
 A :1...9            ( 2.00    -0.9503)  ( 2.00    -0.8906)  ( 2.00    -0.4955)  ( 2.00    -0.4559)
                     ( 2.00    -0.3682)  ( 2.00    -0.3227)  ( 2.00    -0.2792)  ( 2.00    -0.2375)
                     ( 0.00    -0.0296)

 CYCLE    4
  SDIIS (wt  0.901): -0.4210  0.3575  1.0635
 A-DIIS (wt  0.099):  0.0000  0.0000  1.0000
  DIIS coefficients: -0.3794  0.3222  1.0572
 SCF Error: norm([F,P])=      0.051731666127, max([F,P])=      0.010774569790
 orbitals (Q,E):
 ---------------
 A :1...9            ( 2.00    -0.9451)  ( 2.00    -0.9038)  ( 2.00    -0.4884)  ( 2.00    -0.4653)
                     ( 2.00    -0.3676)  ( 2.00    -0.3320)  ( 2.00    -0.2796)  ( 2.00    -0.2531)
                     ( 0.00    -0.0216)

 CYCLE    5
  SDIIS (wt  0.971): -0.0847 -0.0051  0.3470  0.7428
 A-DIIS (wt  0.029):  0.0000  0.0000  0.0000  1.0000
[...]
    5.O         -0.040   0.007  -0.054         0.013   0.001   0.015        -0.001   0.001  -0.001
    6.H         -0.014  -0.033   0.669         0.004   0.005  -0.223         0.030   0.000   0.006


                      3645.958                      3704.286                      3725.034
              ------------------------      ------------------------      ------------------------
    1.O         -0.001   0.001  -0.002        -0.001   0.059  -0.021        -0.000   0.000   0.000
    2.H          0.019   0.023   0.023        -0.053  -0.035  -0.075         0.000  -0.000  -0.000
    3.H          0.221   0.018  -0.665        -0.007  -0.001   0.020        -0.183  -0.026   0.685
    4.H          0.002  -0.032   0.014         0.064  -0.902   0.410         0.000  -0.001   0.000
    5.O          0.030  -0.007   0.040        -0.001   0.000  -0.001         0.055  -0.004  -0.042
    6.H         -0.703   0.088   0.030         0.022  -0.003  -0.001        -0.695   0.092  -0.013




 List of All Frequencies:


 Intensities
 ===========

               Frequency       Dipole Strength        Absorption Intensity (degeneracy not counted)
                 cm-1           1e-40 esu2 cm2          km/mole
              ----------          ----------          ----------
              -89.315181         1162.920738          -26.034753
              196.426510         3420.461914          168.408082
              207.378250          754.067871           39.196899
              239.853700          132.932573            7.992008
              398.679811         2060.579251          205.916731
              707.076152          689.342903          122.174218
             1556.220668          482.857732          188.351221
             1598.294446           80.048572           32.069224
             3332.501804         1102.587881          921.004343
             3645.957824           36.745929           33.581411
             3704.286268          103.104709           95.732877
             3725.033838          161.870709          151.139006



 ============================
 Statistical Thermal Analysis  ***  ideal gas assumed  ***
 ============================
  
 Pressure:                  1.000000 atm.
 Temperature:             298.150000 K



 Moments of Inertia [amu*bohr^2] and principal axis
 ==================================================

           8.4943        261.3583        262.2399
 ------------------------------------------------
          -0.4832         -0.3515          0.8018
          -0.6620         -0.4527         -0.5974
          -0.5729          0.8195          0.0140


 The rotational contribution to the molecular entropy includes
 a term, dependent on the symmetry number sigma. The results 
 reported below were computed using sigma = 1, determined from
 the point group symmetry of the input geometry (NOSYM). 
 If this is not the correct symmetry, try symmetrizing the molecule before
 running the calculation (note: linear molecules should be aligned along one
 of the Cartesian axes).
 Contributions from frequencies below 20 1/cm are not included in
 the vibrational sums. Their contributions, if any, are reported separately.


     Temp                                                       Transl     Rotat    Vibrat     Total
     ----                                                       ------     -----    ------     -----

     298.15   Entropy (cal/mole-K):                             36.674    20.993     7.319    64.986
              Internal Energy (Kcal/mole):                       0.889     0.889    28.890    30.668
              Constant Volume Heat Capacity (cal/mole-K):        2.981     2.981     7.857    13.818

              Summary of energy terms
                                                   hartree              eV         kcal/mol           kJ/mol
                                      --------------------     -----------       ----------      -----------
              Bond Energy:              -1.064526039813314        -28.9672          -668.00         -2794.91
              Internal Energy:           0.048872000511393          1.3299            30.67           128.31
              pV/n = RT:                 0.000944186013486          0.0257             0.59             2.48
              Enthalpy H:               -1.014709853288435        -27.6117          -636.74         -2664.12
              -T*S:                     -0.030877077953156         -0.8402           -19.38           -81.07
              Gibbs free energy:        -1.045586931241591        -28.4519          -656.12         -2745.19
 

 ***************************************************************************************************
 


====================================================================
*** DONE CALCULATING ANALYTICAL SECOND DERIVATIVES OF THE ENERGY ***
====================================================================




 ===========================================================
 SCAN POTENTIAL ENERGY SURFACE ALONG A RANGE OF NORMAL MODES  ***  with IR intensities  ***
 ===========================================================
  

 Symmetry has been reset to default with TOL= 0.000001000000

 RANGE OF FREQUENCIES: from  -1000.000 to      0.000



 ===================
 Vibration symmetry:  ***  A  ***
 ===================
  
 Total number of frequencies of this symmetry:    12
 Frequencies, cm^(-1):
     -89.315     196.427     207.378     239.854     398.680     707.076    1556.221    1598.294
    3332.502    3645.958    3704.286    3725.034
 Number of frequencies in the requested range:     1
1
 ***************************************************************************************************



                                      ****************************************
                                      *  B U I L D : (Fragments, Functions)  *
                                      ****************************************
  

 Total nr. of (C)SFOs (summation over all irreps) :    58

 Specify PRINT SFO in the input file to get a full list

 Nr. of SFOs for ir.rep.           A :    58



 ================================
 (Slater-type)  F U N C T I O N S  ***  (Basis and Fit)  ***
 ================================
  

 Atom Type    1  (O)
 ==============

 Valence Basis Sets:   8
 -----------------------
   1 S    7.360000
   2 S    1.720000
   2 S    2.880000
   2 S    7.580000
   2 P    1.120000
   2 P    2.080000
   2 P    4.080000
   3 D    2.000000

 Frozen Core Shells
 ------------------
    S:  1

 Atom Type    2  (H)
 ==============

 Valence Basis Sets:   4
 -----------------------
   1 S    0.690000
   1 S    0.920000
   1 S    1.580000
   2 P    1.250000


 BAS: List of all Elementary Cartesian Basis Functions
 =====================================================

 The numbering in the list below (to the right of the function characteristics) is referred
 to in print-outs of MO eigenvectors and Mulliken populations in the BAS representation
 (as contrasted to the SFO representation).

 Notes:
 1. The functions are characterized by a polynomial prefactor (powers of x,y,z and r) and
    an exponential decay factor alpha.
 2. Since the basis sets are specific for an atom TYPE, the individual functions occur on
    all atoms of that type.
 3. The word 'Core' in the left margin signals that it is a Core Function (CF) : not a
    degree of freedom in the valence set, but only used to ensure orthogonalization of
    the other valence basis functions on the frozen Core Orbitals.


 (power of) X  Y  Z  R     Alpha  on Atom
            ==========     =====     ==========

 O                                    1    2
                                  ---------------------------------------------------------------------------
    Core    0  0  0  0     7.360      1   20
            0  0  0  1     1.720      2   21
            0  0  0  1     2.880      3   22
            0  0  0  1     7.580      4   23
            1  0  0  0     1.120      5   24
            0  1  0  0     1.120      6   25
            0  0  1  0     1.120      7   26
            1  0  0  0     2.080      8   27
            0  1  0  0     2.080      9   28
            0  0  1  0     2.080     10   29
            1  0  0  0     4.080     11   30
            0  1  0  0     4.080     12   31
            0  0  1  0     4.080     13   32
            2  0  0  0     2.000     14   33
            1  1  0  0     2.000     15   34
            1  0  1  0     2.000     16   35
            0  2  0  0     2.000     17   36
            0  1  1  0     2.000     18   37
            0  0  2  0     2.000     19   38

 H                                    3    4    5    6
                                  ---------------------------------------------------------------------------
            0  0  0  0     0.690     39   45   51   57
            0  0  0  0     0.920     40   46   52   58
            0  0  0  0     1.580     41   47   53   59
            1  0  0  0     1.250     42   48   54   60
            0  1  0  0     1.250     43   49   55   61
            0  0  1  0     1.250     44   50   56   62

 Total number of charge fitting functions (nprimf)       364
 Total number of Cartesian basis functions (naos)         62
 Total number of Cartesian core functions  (ncos)          2



 Scanning vibration frequency    1 A =      -89.315



 -------------------------------------------
  COSMO surface
  Area             =          265.567
  Volume           =          337.576
  Number of Points =          731
 -------------------------------------------



 ========================
 Density Fitting (zlmFit)
 ========================
  
 ZlmFit Fit Quality: GOOD           
  
 Max L-expansion:                        min:   7 max:   8
 Nr. of radial interpolation points:     min:  72 max:  84
 Initial density matrix is taken from previous geometry
 cosmo_calcen: 0.5 (esolb+esolc) (Hartrees) =   -0.022380

 Solvation energy (screening term,uncorrected) =    -14.043528 kcal/mol

 Solvation energy (dispersion and cavitation terms) =      0.496589 kcal/mol
 Solvation Energy Contributions (Hartrees)
          esola   esolb+esolc
     0.02237978   -0.04475957
 esol last cycle   -0.02237978
 cosmo_calcen: 0.5 (esolb+esolc) (Hartrees) =   -0.022380

 Solvation energy (screening term,uncorrected) =    -14.043528 kcal/mol

 Solvation energy (dispersion and cavitation terms) =      0.496589 kcal/mol
 Solvation Energy Contributions (Hartrees)
          esola   esolb+esolc
     0.02237978   -0.04475957
 esol last cycle   -0.02237978


 -------------------------------------------
  COSMO surface
  Area             =          265.873
  Volume           =          337.962
  Number of Points =          732
 -------------------------------------------



 ========================
 Density Fitting (zlmFit)
 ========================
  
 ZlmFit Fit Quality: GOOD           
  
 Max L-expansion:                        min:   7 max:   8
 Nr. of radial interpolation points:     min:  72 max:  84
 Initial density matrix is taken from previous geometry
 cosmo_calcen: 0.5 (esolb+esolc) (Hartrees) =   -0.022384

 Solvation energy (screening term,uncorrected) =    -14.046207 kcal/mol

 Solvation energy (dispersion and cavitation terms) =      0.497162 kcal/mol
 Solvation Energy Contributions (Hartrees)
          esola   esolb+esolc
     0.02238405   -0.04476811
 esol last cycle   -0.02238405
 cosmo_calcen: 0.5 (esolb+esolc) (Hartrees) =   -0.022384

 Solvation energy (screening term,uncorrected) =    -14.046207 kcal/mol

 Solvation energy (dispersion and cavitation terms) =      0.497162 kcal/mol
 Solvation Energy Contributions (Hartrees)
          esola   esolb+esolc
     0.02238405   -0.04476811
 esol last cycle   -0.02238405
 Old frequency:    -89.31518, new:     89.83882
 ===================================================================================================
 Summary of a frequency scan in the requested range: 
 (One component per degenerate irreducible representations, degeneracy is not counted in the intens.)
 ---------------------------------------------------------------------------------------------------
 Frequency, cm**(-1)      Dipol moment derivatives (a.u.)      IR Intensity   Force const   Red.mass
    Old      New                X         Y         Z            km/mole          a.u.        a.u.
 ---------------------------------------------------------------------------------------------------
 Vibration symmetry: A
   -89.315    89.839         -0.143     0.047     0.064           26.175      0.00067363    2.205457
   196.427      not re-calculated (not in the required range)
   207.378      not re-calculated (not in the required range)
   239.854      not re-calculated (not in the required range)
   398.680      not re-calculated (not in the required range)
   707.076      not re-calculated (not in the required range)
  1556.221      not re-calculated (not in the required range)
  1598.294      not re-calculated (not in the required range)
  3332.502      not re-calculated (not in the required range)
  3645.958      not re-calculated (not in the required range)
  3704.286      not re-calculated (not in the required range)
  3725.034      not re-calculated (not in the required range)
 ===================================================================================================



 ============================
 Statistical Thermal Analysis  ***  ideal gas assumed  ***
 ============================
  
 Pressure:                  1.000000 atm.
 Temperature:             298.150000 K



 Moments of Inertia [amu*bohr^2] and principal axis
 ==================================================

           8.4943        261.3583        262.2399
 ------------------------------------------------
          -0.4832         -0.3515          0.8018
          -0.6620         -0.4527         -0.5974
          -0.5729          0.8195          0.0140


 The rotational contribution to the molecular entropy includes
 a term, dependent on the symmetry number sigma. The results 
 reported below were computed using sigma = 1, determined from
 the point group symmetry of the input geometry (NOSYM). 
 If this is not the correct symmetry, try symmetrizing the molecule before
 running the calculation (note: linear molecules should be aligned along one
 of the Cartesian axes).
 Contributions from frequencies below 20 1/cm are not included in
 the vibrational sums. Their contributions, if any, are reported separately.


     Temp                                                       Transl     Rotat    Vibrat     Total
     ----                                                       ------     -----    ------     -----

     298.15   Entropy (cal/mole-K):                             36.674    20.993    10.983    68.650
              Internal Energy (Kcal/mole):                       0.889     0.889    29.492    31.269
              Constant Volume Heat Capacity (cal/mole-K):        2.981     2.981     9.813    15.775

              Summary of energy terms
                                                   hartree              eV         kcal/mol           kJ/mol
                                      --------------------     -----------       ----------      -----------
              Bond Energy:              -1.064526039813314        -28.9672          -668.00         -2794.91
              Internal Energy:           0.049830928786853          1.3560            31.27           130.83
              pV/n = RT:                 0.000944186013486          0.0257             0.59             2.48
              Enthalpy H:               -1.013750925012975        -27.5856          -636.14         -2661.60
              -T*S:                     -0.032617762347811         -0.8876           -20.47           -85.64
              Gibbs free energy:        -1.046368687360787        -28.4731          -656.61         -2747.24
 
 
 ==================================
 Memory not completely deallocated!
 ==================================
 
 Number of unbalanced allocate calls:               1
 Maximum number of active allocate calls:        1576
 
 *******************************************************************************

                             A D F   E X I T
 NORMAL TERMINATION



 =================
 Timing Statistics
 =================
  
 Total Used :                     CPU=      217.60      System=        9.01     Elapsed=      232.11

 Calls  Section                     ( Mean, Percentage )
 ---------------------------------------------------------------------------------------------------
     4  ><      ................      0.03    0.06             0.00    0.09             0.04    0.07
     1  INIT    ................      0.58    0.27             0.02    0.26             0.62    0.27
     1  GEOMET  ................      0.15    0.07             0.02    0.23             0.19    0.08
     2  FRAGM   ................      0.02    0.02             0.01    0.17             0.11    0.09
     2  INPUTA  ................      0.00    0.00             0.00    0.00             0.00    0.00
     2  ATDEN   ................      0.00    0.00             0.00    0.06             0.01    0.01
    12  MAINSY  ................      0.87    4.77             0.05    7.25             1.08    5.59
    12  SYMFIT  ................      0.00    0.02             0.00    0.02             0.03    0.16
    12  CORORT  ................      0.00    0.01             0.00    0.02             0.00    0.02
    12  SYMORB  ................      0.16    0.89             0.01    1.12             0.23    1.20
    12  CLSMAT  ................      0.07    0.39             0.00    0.58             0.08    0.39
    12  ORTHON  ................      0.07    0.36             0.00    0.55             0.07    0.37
    12  GENPT   ................      0.20    1.09             0.01    1.49             0.21    1.09
    12  PTBAS   ................      0.14    0.75             0.01    1.19             0.15    0.76
   133  FOCKY   ................      0.54   33.04             0.02   28.74             0.56   32.36
   133  FOCKTR  ................      0.00    0.17             0.00    0.55             0.00    0.18
   133  SDIIS   ................      0.00    0.27             0.00    0.58             0.01    0.33
    12  TOTEN   ................      0.84    4.62             0.02    2.46             0.86    4.46
    12  POPAN   ................      0.06    0.35             0.00    0.54             0.07    0.36
    12  DEBYE   ................      0.07    0.36             0.00    0.64             0.07    0.37
    10  INPUTE  ................      0.00    0.01             0.00    0.01             0.00    0.01
    10  SYMORE  ................      0.00    0.01             0.00    0.00             0.00    0.01
    21  ELNRGY  ................      0.25    2.45             0.01    1.20             0.26    2.36
    11  ENGRAD  ................      0.00    0.01             0.00    0.01             0.00    0.01
     1  COREPS  ................      0.45    0.21             0.01    0.12             0.47    0.20
     1  METS    ................      0.07    0.03             0.00    0.01             0.07    0.03
     1  CETS    ................      0.01    0.00             0.00    0.02             0.01    0.00
     1  POPUL   ................      0.07    0.03             0.01    0.07             0.08    0.03
     1  ENHESS  ................    107.95   49.61             4.67   51.87           113.88   49.06
     1  EXIT PROCEDURE .........      0.25    0.11             0.01    0.14             0.27    0.11


 Currently Open Files (EXIT00)
 ====================

 Unit    Access Format  Status   Type       Ident (file)
 -------------------------------------------------------
   3      SEQ    FORM   TRANSP  NORMAL      LOGFILE
                                          ( logfile )
