
 *******************************************************************************
 *                                                                             *
 *  -------------------------------------                                      *
 *   Amsterdam Density Functional  (ADF)         2019                          *
 *  -------------------------------------                                      *
 *                                               r79301 2019-11-09             *
 *                                                                             *
 *                                                                             *
 *                            =====================                            *
 *                            |                   |                            *
 *                            |     D I R A C     |                            *
 *                            |                   |                            *
 *                            =====================                            *
 *                                                                             *
 *                                                                             *
 *   Online information and documentation:  https://www.scm.com/support/       *
 *   E-mail:  support@scm.com   info@scm.com                                   *
 *                                                                             *
 *   Scientific publications using ADF results must be properly referenced     *
 *   See the User Manuals (or the web site) for recommended citations          *
 *   The terms and conditions of the End User License Agreement apply to       *
 *   the use of ADF, https://www.scm.com/license-terms/                        *
 *                                                                             *
 **********************  x86_64_linux_intel / intelmpi  ************************
 
 
 
  
 DIRAC 2019  RunTime: Oct18-2020 22:22:39  Nodes: 1  Procs: 1

 Temporary files are created in /scratch/kid_0.1579542875 (0x58465342)

1
 HYDROGEN ATOM RELATIVISTIC, Point Nuc, A and c from libtc   
 N J RN H ZN XION ANUC CLIGHT
 5000    1100.00000000197.36710137  1.00000000  0.00000000    1.007825  0.1370360E+03
  PH   PHI     EPS        DEL        DELRVR
  0.30  0.30     2500.00  0.00001000  0.00001000
 IDIRC  NC1  NDEBU NPRIN  IPUN IRCOR IWCOR
   1   300     0     0     0     0     0
   XALPHA      XLATTER      RNUC
  0.70000000  0.00000000  0.00000000 Point Charge
   XN   XL   XJ      XE          XZ      XDELL
  1.0  0.0  0.5      -1.000       1.000     0.00000
 ICORP=  0  NPCL=  0  DEMP=0.00  PEPS=0.000000
 R(1)=  0.1000000E-08 D=  0.1005080E+01 RNUC=  0.0000000E+00
 converged at cycle   32  DENSITY AVERAGING    0.2400
  MAXIMUM ERROR IN R.V(R) IS   0.79874357E-05
 Q,EY,EV,EZ,ESUM,ETOT,RHO  0.100000E+01 -0.266614E+00 -0.619969E+00 -0.910779E+00 -0.203940E+00 -0.415998E+00  0.337036E-17


 DIRAC CALCULATION
1                    HYDROGEN ATOM RELATIVISTIC, Point Nuc, A and c from libtc


 EXCHANGE COEFFICIENT=  0.7000000           TAIL CORRECTION=  0.           NUCLEAR RADIUS=  0.000E+00
0                       ORBITAL    N    L    J     ELECTRONS     EIGENVALUE                DELTA OF EIGENV.

                          1S1/2  1.0  0.0  0.5     1.000       -0.2039397E+00                 0.2720093E-06


                                        NUCLEAR CHARGE=    1.000000
                            INTEGRAL OF CHARGE DENSITY=    1.000000
                           SUM OF THE ORBITAL ENERGIES=     -0.2039
                                          TOTAL ENERGY=     -0.4160
                                        KINETIC ENERGY=      0.4160
                             NUCLEAR ATTRACTION ENERGY=     -0.9108
                             ELECTRON REPULSION ENERGY=      0.2787
                                       EXCHANGE ENERGY=     -0.2000

 *******************************************************************************

                             D I R A C   E X I T
 NORMAL TERMINATION



 =================
 Timing Statistics
 =================
  
 Total Used :                     CPU=        0.06      System=        0.00     Elapsed=        0.07

 Calls  Section                     ( Mean, Percentage )
 ---------------------------------------------------------------------------------------------------
     2  ><      ................      0.00    0.00             0.00    0.00             0.00    0.01
     1  EXIT PROCEDURE .........      0.06  100.00             0.00  100.00             0.07   99.99


 Currently Open Files (EXIT00)
 ====================

 Unit    Access Format  Status   Type       Ident (file)
 -------------------------------------------------------
   3      SEQ    FORM   TRANSP  NORMAL      LOGFILE
                                          ( logfile )
 
Create H   file=TZP-H
XC
  GGA PBE
End
relativistic ZORA
Corepotentials t12.rel
End

 *******************************************************************************
 *                                                                             *
 *  -------------------------------------                                      *
 *   Amsterdam Density Functional  (ADF)         2019                          *
 *  -------------------------------------                                      *
 *                                               r79301 2019-11-09             *
 *                                                                             *
 *                                                                             *
 *                              =================                              *
 *                              |               |                              *
 *                              |     A D F     |                              *
 *                              |               |                              *
 *                              =================                              *
 *                                                                             *
 *                                                                             *
 *   Online information and documentation:  https://www.scm.com/support/       *
 *   E-mail:  support@scm.com   info@scm.com                                   *
 *                                                                             *
 *   Scientific publications using ADF results must be properly referenced     *
 *   See the User Manuals (or the web site) for recommended citations          *
 *   The terms and conditions of the End User License Agreement apply to       *
 *   the use of ADF, https://www.scm.com/license-terms/                        *
 *                                                                             *
 **********************  x86_64_linux_intel / intelmpi  ************************
 
 
 
  
 ADF 2019  RunTime: Oct18-2020 22:22:40  Nodes: 1  Procs: 1

 Temporary files are created in /scratch/kid_0.427113905 (0x58465342)

 Hydrogen (TZP)



 ===========================
 A T T A C H E D   F I L E S
 ===========================
  
 CREATE - Data File:    TZP-H
                        Hydrogen (TZP)
 Core Potentials:
         file : t12.rel



 ===============================
 M O D E L   P A R A M E T E R S
 ===============================
  
 DENSITY FUNCTIONAL POTENTIAL (scf)
    LDA:                               PW92                                    == Not Default ==
    Gradient Corrections:              PBEc PBEx                               == Not Default ==

 SPIN  (restricted / unrestr.)
    Molecule:                          Restricted                               

 OTHER ASPECTS
    Relativistic Corrections:          scalar (ZORA,MAPA)                      == Not Default ==

    Nuclear Charge Density Model:      Point Charge Nuclei                      
    Core Treatment:                    Frozen Orbital(s)                        

    Hyperfine or Zeeman Interaction:   ---                                      



 =====================================
 S Y M M E T R Y ,   E L E C T R O N S
 =====================================
  
 Symmetry: ATOM

 Irreducible Representations, including subspecies
 -------------------------------------------------
 S
 P:x  P:y  P:z
 D:z2  D:x2-y2  D:xy  D:xz  D:yz
 F:z3  F:z  F:xyz  F:z2x  F:z2y  F:x  F:y


 Configuration of Valence Electrons
 ==================================

          Occupation Numbers
          -------------------------------------------------
 S        1
 P        0
 D        0
 F        0
          -------------------------------------------------

 Total:   1

 Net Charge: 0 (Nuclei minus Electrons)

 Preset values for MO occupations will be applied through SCF cycle no. 1000000
 Thereafter, the program will assign electrons to MOs that are spatially
 similar to the occupied MOs in a "reference" cycle ("KeepOrbitals").
 The reference cycle is always the PREVIOUS cycle: it will evolve with
 the SCF procedure.



 ================================
 (Slater-type)  F U N C T I O N S  ***  (Basis and Fit)  ***
 ================================
  

 Atom Type    1  (H)
 ==============

 Valence Basis Sets:   4
 -----------------------
   1 S    0.690000
   1 S    0.920000
   1 S    1.580000
   2 P    1.250000


 BAS: List of all Elementary Cartesian Basis Functions
 =====================================================

 The numbering in the list below (to the right of the function characteristics) is referred
 to in print-outs of MO eigenvectors and Mulliken populations in the BAS representation
 (as contrasted to the SFO representation).

 Notes:
 1. The functions are characterized by a polynomial prefactor (powers of x,y,z and r) and
    an exponential decay factor alpha.
 2. Since the basis sets are specific for an atom TYPE, the individual functions occur on
    all atoms of that type.
 3. The word 'Core' in the left margin signals that it is a Core Function (CF) : not a
    degree of freedom in the valence set, but only used to ensure orthogonalization of
    the other valence basis functions on the frozen Core Orbitals.


 (power of) X  Y  Z  R     Alpha  on Atom
            ==========     =====     ==========

 H                                    1
                                  ---------------------------------------------------------------------------
            0  0  0  0     0.690      1
            0  0  0  0     0.920      2
            0  0  0  0     1.580      3
            1  0  0  0     1.250      4
            0  1  0  0     1.250      5
            0  0  1  0     1.250      6

 Total number of charge fitting functions (nprimf)        50
 Total number of Cartesian basis functions (naos)          6
 Total number of Cartesian core functions  (ncos)          0



 BAS: List of all Elementary Cartesian Basis Functions
 =====================================================

 The numbering in the list below (to the right of the function characteristics) is referred
 to in print-outs of MO eigenvectors and Mulliken populations in the BAS representation
 (as contrasted to the SFO representation).

 Notes:
 1. The functions are characterized by a polynomial prefactor (powers of x,y,z and r) and
    an exponential decay factor alpha.
 2. Since the basis sets are specific for an atom TYPE, the individual functions occur on
    all atoms of that type.
 3. The word 'Core' in the left margin signals that it is a Core Function (CF) : not a
    degree of freedom in the valence set, but only used to ensure orthogonalization of
    the other valence basis functions on the frozen Core Orbitals.


 (power of) X  Y  Z  R     Alpha  on Atom
            ==========     =====     ==========

 H                                    1
                                  ---------------------------------------------------------------------------
            0  0  0  0     0.690      1
            0  0  0  0     0.920      2
            0  0  0  0     1.580      3
            1  0  0  0     1.250      4
            0  1  0  0     1.250      5
            0  0  1  0     1.250      6
1
 ***************************************************************************************************



                                              ***********************
                                              *  T E C H N I C A L  *
                                              ***********************
  



 =============================================================
 P A R A L L E L I Z A T I O N  and  V E C T O R I Z A T I O N
 =============================================================
  
 Nr of parallel processes:                                1
 Maximum vector length in NumInt loops:                 128



 =====================
 S C F   U P D A T E S
 =====================
  
 Max. nr. of cycles:                               300
 Convergence criterion:                              0.0000000100
   secondary criterion:                              0.0000000100

 Mix parameter (when DIIS does not apply):           0.2000000000
 Special mix parameter for the first cycle:          1.0000000000
 Mixed ADIIS+SDIIS will be used                  
    Max number of expansion vectors:                10
    Pure ADIIS when Max([F,P]) is above              0.1000000000
    Pure SDIIS when Max([F,P]) is below              0.0010000000
 Automatic ElectronSmearing (in case of problematic SCF convergence) disabled



 =================
 P R E C I S I O N  ***  (General: NumInt, NeglectFunctionTails, ...)  ***
 =================
  

 NumInt:           Target precision:                12.0000000000
 -------           Initial precision:               10.0000000000
                   Min. precision (optimization):   10.0000000000

 Neglect Functions:          Basis functions:        0.1000000000E-13
 ------------------          Fit functions:          0.1000000000E-13



 ===========================
 L I N E A R   S C A L I N G
 ===========================
  

 Cut-off radii density fit:                        0.1000000000E-97
 Overlap cut-off criterion AO matrix elements:     0.1000000000E-97
 Cut-offs for Coulomb potential and fitted density:0.1000000000E-97
 Cut-off criterion for Coulomb multipole terms:    0.1000000000E-97
 Progressive Convergence parameter:                 0.000000000    
1
 ***************************************************************************************************



                                            ***************************
                                            *  C O M P U T A T I O N  *
                                            ***************************
  

 Number of elements of the density matrix on this node (used, total):        21        21



 ===========================================
 Numerical Integration : Fuzzy Cells (Becke)
 ===========================================
  
 Becke grid quality: VERYGOOD       
  
 Lebedev angular grid order:             min:  13 max:  41
 Nr. of radial points:                   min:  64 max:  64

 Total nr. of points:         64
 Nr. of blocks:                1
 Block length:                64
 Nr. of dummy points:          0


 Test of Precision of the Numerical Integration Grid
 ===================================================

 Integral of the Total Core Density:                   0.00000000000000



 ========================
 Density Fitting (zlmFit)
 ========================
  
 ZlmFit Fit Quality: VERYGOOD       
  
 Max L-expansion:                        min:   0 max:   0
 Nr. of radial interpolation points:     min: 120 max: 120



 =====
 S C F  ***  ScaSCF  ***
 =====
  

 CYCLE    1
 SCF Error: norm([F,P])=      0.000000000000, max([F,P])=      0.000000000000
 orbitals (Q,E):
 ---------------
 S :1...3            ( 1.00    -0.5000)  ( 0.00    -0.0900)  ( 0.00     1.2936)
 P :1...1            ( 0.00     0.1562)

 CYCLE    2
 SCF Error: norm([F,P])=      0.031537872292, max([F,P])=      0.030110494752
 orbitals (Q,E):
 ---------------
 S :1...2            ( 1.00    -0.2218)  ( 0.00     0.1019)
 P :1...1            ( 0.00     0.4189)

 CYCLE    3
  SDIIS (wt  0.000):  0.1996  0.8004
 A-DIIS (wt  1.000):  0.0000  1.0000
  DIIS coefficients:  0.0000  1.0000
 SCF Error: norm([F,P])=      0.008617989401, max([F,P])=      0.008343029399
 orbitals (Q,E):
 ---------------
 S :1...2            ( 1.00    -0.2422)  ( 0.00     0.0889)
 P :1...1            ( 0.00     0.4024)

 CYCLE    4
  SDIIS (wt  0.993):  0.1666  0.8334
 A-DIIS (wt  0.007):  0.0000  1.0000
  DIIS coefficients:  0.1654  0.8346
 SCF Error: norm([F,P])=      0.001732350026, max([F,P])=      0.001718616814
 orbitals (Q,E):
 ---------------
 S :1...2            ( 1.00    -0.2385)  ( 0.00     0.0908)
 P :1...1            ( 0.00     0.4054)

 CYCLE    5
  SDIIS (wt  1.000):  0.0236  0.9764
  DIIS coefficients:  0.0236  0.9764
 SCF Error: norm([F,P])=      0.000043673449, max([F,P])=      0.000039769875
 orbitals (Q,E):
 ---------------
 S :1...2            ( 1.00    -0.2386)  ( 0.00     0.0908)
 P :1...1            ( 0.00     0.4054)

 CYCLE    6
  SDIIS (wt  1.000): -0.0577  1.0577
  DIIS coefficients: -0.0577  1.0577
 SCF Error: norm([F,P])=      0.000002383805, max([F,P])=      0.000002158128
 orbitals (Q,E):
 ---------------
 S :1...2            ( 1.00    -0.2386)  ( 0.00     0.0908)
 P :1...1            ( 0.00     0.4054)

 CYCLE    7
  SDIIS (wt  1.000): -0.0032  1.0032
  DIIS coefficients: -0.0032  1.0032
 SCF Error: norm([F,P])=      0.000000007721, max([F,P])=      0.000000007228
 orbitals (Q,E):
 ---------------
 S :1...2            ( 1.00    -0.2386)  ( 0.00     0.0908)
 P :1...1            ( 0.00     0.4054)

 SCF CONVERGED

 CYCLE    8
1
 ***************************************************************************************************



                                                *******************
                                                *  R E S U L T S  *
                                                *******************
  
 *** Using FIT density in Focky
  SDIIS (wt  1.000):  0.0192  0.9808
  DIIS coefficients:  0.0192  0.9808
 SCF Error: norm([F,P])=      0.000000000151, max([F,P])=      0.000000000141

 Scaled ZORA Orbital Energies, per Irrep and Spin:
 =================================================
                        Occup              E (au)              E (eV)       Diff (eV) with prev. cycle
                        -----      --------------------        ------       --------------------------
 S
               1        1.000     -0.23861775226993E+00        -6.493               7.43E-09
               2        0.000      0.90791701709251E-01         2.471
               3        0.000      0.15217530108908E+01        41.409
 P
               1        0.000      0.40537978060393E+00        11.031


 Partially Occupied:
               1 S                -0.23861775226993E+00
  
 LUMO :        2 S                 0.90791701709251E-01
  


 Orbital Energies, all Irreps
 ========================================

 Irrep        no.  (spin)   Occup              E (au)                E (eV)
 ---------------------------------------------------------------------------
 S             1             1.00       -0.23861775226993E+00        -6.4931
 S             2             0.00        0.90791701709251E-01         2.4706
 P             1             0.00        0.40537978060393E+00        11.0309
 S             3             0.00        0.15217530108908E+01        41.4090


 All Electron Calculation, thus no Orbital Energies of the Core Orbitals are calculated



 =======================================
 M U L L I K E N   P O P U L A T I O N S
 =======================================
  
 The survey below gives for each atom:
 a) the total charge (Z minus electrons)
 b) the net spin polarization (nr of electrons spin-A minus spin-B)
 c) for each spin the atomic electron valence density (integrated) per L-value.

 Atom              Charge    Spin density          S         P         D         F
 ----              ------    ------------       ------    ------    ------    ------
 1 H              -0.0000                       1.0000    0.0000    0.0000    0.0000

 Populations of individual BAS functions
 ----------------------------------------
 1 H            0.2104  0.6788  0.1107  0.0000  0.0000  0.0000

 Gross Charges per Atom (Z minus electrons)
 ==========================================
            -0.0000
 Net Total: -0.00000000



 =======================================================================
 Electrostatic potential at the Nuclei due to electrons and other nuclei
 =======================================================================
  
         Atom                  Potential
         ----                  ---------
     1)   H                   0.94468022
 
 
 ========================
 No memory problems found
 ========================
 
 Maximum number of active allocate calls:         306
 
 *******************************************************************************

                             A D F   E X I T
 NORMAL TERMINATION



 =================
 Timing Statistics
 =================
  
 Total Used :                     CPU=        0.33      System=        0.02     Elapsed=        0.38

 Calls  Section                     ( Mean, Percentage )
 ---------------------------------------------------------------------------------------------------
     3  ><      ................      0.00    1.20             0.00    0.00             0.00    1.14
     1  INIT    ................      0.07   20.48             0.00   20.00             0.08   20.30
     1  GEOMET  ................      0.02    4.82             0.00    0.00             0.02    6.01
     1  INPUTA  ................      0.00    1.20             0.00    0.00             0.00    0.88
     1  MAINSY  ................      0.00    1.20             0.00   20.00             0.01    3.43
     1  SYMFIT  ................      0.00    1.21             0.00    0.00             0.00    0.43
     1  CORORT  ................      0.00    0.00             0.00    0.00             0.00    0.32
     1  SYMORB  ................      0.00    0.00             0.00    0.00             0.00    0.19
     1  CLSMAT  ................      0.00    1.20             0.00    0.00             0.01    1.36
     1  ORTHON  ................      0.00    1.20             0.00    0.00             0.00    1.24
     1  GENPT   ................      0.01    2.41             0.00   20.00             0.01    3.25
     1  PTBAS   ................      0.00    1.20             0.00   20.00             0.01    1.35
     8  FOCKY   ................      0.02   46.99             0.00   20.00             0.02   44.49
     8  FOCKTR  ................      0.00    0.00             0.00    0.00             0.00    1.26
     8  SDIIS   ................      0.00    7.23             0.00    0.00             0.00    5.67
     1  COREPS  ................      0.02    4.82             0.00    0.00             0.01    3.65
     1  POPAN   ................      0.00    1.20             0.00    0.00             0.00    1.22
     1  DEBYE   ................      0.00    0.00             0.00    0.00             0.00    0.49
     1  EXIT PROCEDURE .........      0.01    3.61             0.00    0.00             0.01    3.35


 Currently Open Files (EXIT00)
 ====================

 Unit    Access Format  Status   Type       Ident (file)
 -------------------------------------------------------
   3      SEQ    FORM   TRANSP  NORMAL      LOGFILE
                                          ( logfile )

 ***************************************************************************************************
 (LOGFILE)
 <Oct18-2020> <22:22:39>  DIRAC 2019  RunTime: Oct18-2020 22:22:39  Nodes: 1  Procs: 1
 <Oct18-2020> <22:22:39>  NORMAL TERMINATION
 <Oct18-2020> <22:22:39>  END
 <Oct18-2020> <22:22:40>  ADF 2019  RunTime: Oct18-2020 22:22:40  Nodes: 1  Procs: 1
 <Oct18-2020> <22:22:40>  Hydrogen (TZP)
 <Oct18-2020> <22:22:40>  RunType   : CREATE
 <Oct18-2020> <22:22:40>  Net Charge: 0 (Nuclei minus Electrons)
 <Oct18-2020> <22:22:40>  Symmetry  : ATOM
  Coordinates
    Atom         X           Y           Z   (Angstrom)
    1.H         0.000000    0.000000    0.000000
 <Oct18-2020> <22:22:40>  >>>> CORORT
 <Oct18-2020> <22:22:40>  >>>> CLSMAT
 <Oct18-2020> <22:22:40>  >>>> ORTHON
 <Oct18-2020> <22:22:40>  >>>> GENPT
 <Oct18-2020> <22:22:40>  Block Length=  64
 <Oct18-2020> <22:22:40>  >>>> PTBAS
 <Oct18-2020> <22:22:40>  >>>> CYCLE
 <Oct18-2020> <22:22:40>              |Error|         MaxErr       Wt(A-DIIS)
 <Oct18-2020> <22:22:40>      1      0.00000000      0.00000000
 <Oct18-2020> <22:22:40>      2      0.03153787      0.03011049
 <Oct18-2020> <22:22:40>      3      0.00861799      0.00834303    100.0
 <Oct18-2020> <22:22:40>      4      0.00173235      0.00171862      0.7
 <Oct18-2020> <22:22:40>      5      0.00004367      0.00003977      0.0
 <Oct18-2020> <22:22:40>      6      0.00000238      0.00000216      0.0
 <Oct18-2020> <22:22:40>      7      0.00000001      0.00000001      0.0
 <Oct18-2020> <22:22:40>  SCF converged
 <Oct18-2020> <22:22:40>      8      0.00000000      0.00000000      0.0
 <Oct18-2020> <22:22:40>  >>>> POPAN
 <Oct18-2020> <22:22:40>  >>>> DEBYE
 <Oct18-2020> <22:22:40>  NORMAL TERMINATION
 <Oct18-2020> <22:22:40>  END

 *******************************************************************************
 *                                                                             *
 *  -------------------------------------                                      *
 *   Amsterdam Density Functional  (ADF)         2019                          *
 *  -------------------------------------                                      *
 *                                               r79301 2019-11-09             *
 *                                                                             *
 *                                                                             *
 *                            =====================                            *
 *                            |                   |                            *
 *                            |     D I R A C     |                            *
 *                            |                   |                            *
 *                            =====================                            *
 *                                                                             *
 *                                                                             *
 *   Online information and documentation:  https://www.scm.com/support/       *
 *   E-mail:  support@scm.com   info@scm.com                                   *
 *                                                                             *
 *   Scientific publications using ADF results must be properly referenced     *
 *   See the User Manuals (or the web site) for recommended citations          *
 *   The terms and conditions of the End User License Agreement apply to       *
 *   the use of ADF, https://www.scm.com/license-terms/                        *
 *                                                                             *
 **********************  x86_64_linux_intel / intelmpi  ************************
 
 
 
  
 DIRAC 2019  RunTime: Oct18-2020 22:22:40  Nodes: 1  Procs: 1

 Temporary files are created in /scratch/kid_0.43193870 (0x58465342)

1
 OXYGEN ATOM 1s CORE RELATIVISTIC, Point Nuc, A and c from li
 N J RN H ZN XION ANUC CLIGHT
 5000    4100.00000000197.36710137  8.00000000  0.00000000   15.994914  0.1370360E+03
  PH   PHI     EPS        DEL        DELRVR
  0.30  0.30     2500.00  0.00001000  0.00001000
 IDIRC  NC1  NDEBU NPRIN  IPUN IRCOR IWCOR
   1   300     0     0     0     0     1
   XALPHA      XLATTER      RNUC
  0.70000000  0.00000000  0.00000000 Point Charge
   XN   XL   XJ      XE          XZ      XDELL
  1.0  0.0  0.5      -5.000       2.000     0.00000
  2.0  0.0  0.5      -1.000       2.000     0.00000
  2.0  1.0  0.5      -1.000       2.000     0.00000
  2.0  1.0  1.5      -1.000       2.000     0.00000
 ICORP=  0  NPCL=  0  DEMP=0.00  PEPS=0.000000
 R(1)=  0.1000000E-08 D=  0.1005080E+01 RNUC=  0.0000000E+00
 converged at cycle   28  DENSITY AVERAGING    0.2400
  MAXIMUM ERROR IN R.V(R) IS   0.81125670E-05
 Q,EY,EV,EZ,ESUM,ETOT,RHO  0.800000E+01 -0.101247E+02 -0.114961E+03 -0.177573E+03 -0.405053E+02 -0.743427E+02  0.414766E-14


 DIRAC CALCULATION
1                    OXYGEN ATOM 1s CORE RELATIVISTIC, Point Nuc, A and c from libtc


 EXCHANGE COEFFICIENT=  0.7000000           TAIL CORRECTION=  0.           NUCLEAR RADIUS=  0.000E+00
0                       ORBITAL    N    L    J     ELECTRONS     EIGENVALUE                DELTA OF EIGENV.

                          1S1/2  1.0  0.0  0.5     2.000       -0.1880014E+02                 0.7264358E-06
                          2S1/2  2.0  0.0  0.5     2.000       -0.8412236E+00                 0.5932752E-05
                          2P1/2  2.0  1.0  0.5     2.000       -0.3063203E+00                 0.5998471E-05
                          2P3/2  2.0  1.0  1.5     2.000       -0.3049609E+00                 0.5986971E-05


                                        NUCLEAR CHARGE=    8.000000
                            INTEGRAL OF CHARGE DENSITY=    8.000000
                           SUM OF THE ORBITAL ENERGIES=    -40.5053
                                          TOTAL ENERGY=    -74.3427
                                        KINETIC ENERGY=     74.4552
                             NUCLEAR ATTRACTION ENERGY=   -177.5730
                             ELECTRON REPULSION ENERGY=     36.3686
                                       EXCHANGE ENERGY=     -7.5935

 *******************************************************************************

                             D I R A C   E X I T
 NORMAL TERMINATION



 =================
 Timing Statistics
 =================
  
 Total Used :                     CPU=        0.10      System=        0.00     Elapsed=        0.11

 Calls  Section                     ( Mean, Percentage )
 ---------------------------------------------------------------------------------------------------
     2  ><      ................      0.00    0.00             0.00    0.00             0.00    0.01
     1  EXIT PROCEDURE .........      0.10  100.00             0.00    0.00             0.11   99.99


 Currently Open Files (EXIT00)
 ====================

 Unit    Access Format  Status   Type       Ident (file)
 -------------------------------------------------------
   3      SEQ    FORM   TRANSP  NORMAL      LOGFILE
                                          ( logfile )
 
Create O   file=TZP-O.1s
XC
  GGA PBE
End
relativistic ZORA
Corepotentials t12.rel
End

 *******************************************************************************
 *                                                                             *
 *  -------------------------------------                                      *
 *   Amsterdam Density Functional  (ADF)         2019                          *
 *  -------------------------------------                                      *
 *                                               r79301 2019-11-09             *
 *                                                                             *
 *                                                                             *
 *                              =================                              *
 *                              |               |                              *
 *                              |     A D F     |                              *
 *                              |               |                              *
 *                              =================                              *
 *                                                                             *
 *                                                                             *
 *   Online information and documentation:  https://www.scm.com/support/       *
 *   E-mail:  support@scm.com   info@scm.com                                   *
 *                                                                             *
 *   Scientific publications using ADF results must be properly referenced     *
 *   See the User Manuals (or the web site) for recommended citations          *
 *   The terms and conditions of the End User License Agreement apply to       *
 *   the use of ADF, https://www.scm.com/license-terms/                        *
 *                                                                             *
 **********************  x86_64_linux_intel / intelmpi  ************************
 
 
 
  
 ADF 2019  RunTime: Oct18-2020 22:22:40  Nodes: 1  Procs: 1

 Temporary files are created in /scratch/kid_0.1523416271 (0x58465342)

 Oxygen (TZP, 1s frozen)



 ===========================
 A T T A C H E D   F I L E S
 ===========================
  
 CREATE - Data File:    TZP-O.1s
                        Oxygen (TZP, 1s frozen)
 Core Potentials:
         file : t12.rel



 ===============================
 M O D E L   P A R A M E T E R S
 ===============================
  
 DENSITY FUNCTIONAL POTENTIAL (scf)
    LDA:                               PW92                                    == Not Default ==
    Gradient Corrections:              PBEc PBEx                               == Not Default ==

 SPIN  (restricted / unrestr.)
    Molecule:                          Restricted                               

 OTHER ASPECTS
    Relativistic Corrections:          scalar (ZORA,MAPA)                      == Not Default ==

    Nuclear Charge Density Model:      Point Charge Nuclei                      
    Core Treatment:                    Frozen Orbital(s)                        

    Hyperfine or Zeeman Interaction:   ---                                      



 =====================================
 S Y M M E T R Y ,   E L E C T R O N S
 =====================================
  
 Symmetry: ATOM

 Irreducible Representations, including subspecies
 -------------------------------------------------
 S
 P:x  P:y  P:z
 D:z2  D:x2-y2  D:xy  D:xz  D:yz
 F:z3  F:z  F:xyz  F:z2x  F:z2y  F:x  F:y


 Configuration of Valence Electrons
 ==================================

          Occupation Numbers
          -------------------------------------------------
 S        2
 P        4
 D        0
 F        0
          -------------------------------------------------

 Total:   6

 Net Charge: 0 (Nuclei minus Electrons)

 Preset values for MO occupations will be applied through SCF cycle no. 1000000
 Thereafter, the program will assign electrons to MOs that are spatially
 similar to the occupied MOs in a "reference" cycle ("KeepOrbitals").
 The reference cycle is always the PREVIOUS cycle: it will evolve with
 the SCF procedure.



 ================================
 (Slater-type)  F U N C T I O N S  ***  (Basis and Fit)  ***
 ================================
  

 Atom Type    1  (O)
 ==============

 Valence Basis Sets:   8
 -----------------------
   1 S    7.360000
   2 S    1.720000
   2 S    2.880000
   2 S    7.580000
   2 P    1.120000
   2 P    2.080000
   2 P    4.080000
   3 D    2.000000

 Frozen Core Shells
 ------------------
    S:  1


 BAS: List of all Elementary Cartesian Basis Functions
 =====================================================

 The numbering in the list below (to the right of the function characteristics) is referred
 to in print-outs of MO eigenvectors and Mulliken populations in the BAS representation
 (as contrasted to the SFO representation).

 Notes:
 1. The functions are characterized by a polynomial prefactor (powers of x,y,z and r) and
    an exponential decay factor alpha.
 2. Since the basis sets are specific for an atom TYPE, the individual functions occur on
    all atoms of that type.
 3. The word 'Core' in the left margin signals that it is a Core Function (CF) : not a
    degree of freedom in the valence set, but only used to ensure orthogonalization of
    the other valence basis functions on the frozen Core Orbitals.


 (power of) X  Y  Z  R     Alpha  on Atom
            ==========     =====     ==========

 O                                    1
                                  ---------------------------------------------------------------------------
    Core    0  0  0  0     7.360      1
            0  0  0  1     1.720      2
            0  0  0  1     2.880      3
            0  0  0  1     7.580      4
            1  0  0  0     1.120      5
            0  1  0  0     1.120      6
            0  0  1  0     1.120      7
            1  0  0  0     2.080      8
            0  1  0  0     2.080      9
            0  0  1  0     2.080     10
            1  0  0  0     4.080     11
            0  1  0  0     4.080     12
            0  0  1  0     4.080     13
            2  0  0  0     2.000     14
            1  1  0  0     2.000     15
            1  0  1  0     2.000     16
            0  2  0  0     2.000     17
            0  1  1  0     2.000     18
            0  0  2  0     2.000     19

 Total number of charge fitting functions (nprimf)        82
 Total number of Cartesian basis functions (naos)         19
 Total number of Cartesian core functions  (ncos)          1



 BAS: List of all Elementary Cartesian Basis Functions
 =====================================================

 The numbering in the list below (to the right of the function characteristics) is referred
 to in print-outs of MO eigenvectors and Mulliken populations in the BAS representation
 (as contrasted to the SFO representation).

 Notes:
 1. The functions are characterized by a polynomial prefactor (powers of x,y,z and r) and
    an exponential decay factor alpha.
 2. Since the basis sets are specific for an atom TYPE, the individual functions occur on
    all atoms of that type.
 3. The word 'Core' in the left margin signals that it is a Core Function (CF) : not a
    degree of freedom in the valence set, but only used to ensure orthogonalization of
    the other valence basis functions on the frozen Core Orbitals.


 (power of) X  Y  Z  R     Alpha  on Atom
            ==========     =====     ==========

 O                                    1
                                  ---------------------------------------------------------------------------
    Core    0  0  0  0     7.360      1
            0  0  0  1     1.720      2
            0  0  0  1     2.880      3
            0  0  0  1     7.580      4
            1  0  0  0     1.120      5
            0  1  0  0     1.120      6
            0  0  1  0     1.120      7
            1  0  0  0     2.080      8
            0  1  0  0     2.080      9
            0  0  1  0     2.080     10
            1  0  0  0     4.080     11
            0  1  0  0     4.080     12
            0  0  1  0     4.080     13
            2  0  0  0     2.000     14
            1  1  0  0     2.000     15
            1  0  1  0     2.000     16
            0  2  0  0     2.000     17
            0  1  1  0     2.000     18
            0  0  2  0     2.000     19
1
 ***************************************************************************************************



                                              ***********************
                                              *  T E C H N I C A L  *
                                              ***********************
  



 =============================================================
 P A R A L L E L I Z A T I O N  and  V E C T O R I Z A T I O N
 =============================================================
  
 Nr of parallel processes:                                1
 Maximum vector length in NumInt loops:                 128



 =====================
 S C F   U P D A T E S
 =====================
  
 Max. nr. of cycles:                               300
 Convergence criterion:                              0.0000000100
   secondary criterion:                              0.0000000100

 Mix parameter (when DIIS does not apply):           0.2000000000
 Special mix parameter for the first cycle:          1.0000000000
 Mixed ADIIS+SDIIS will be used                  
    Max number of expansion vectors:                10
    Pure ADIIS when Max([F,P]) is above              0.1000000000
    Pure SDIIS when Max([F,P]) is below              0.0010000000
 Automatic ElectronSmearing (in case of problematic SCF convergence) disabled



 =================
 P R E C I S I O N  ***  (General: NumInt, NeglectFunctionTails, ...)  ***
 =================
  

 NumInt:           Target precision:                12.0000000000
 -------           Initial precision:               10.0000000000
                   Min. precision (optimization):   10.0000000000

 Neglect Functions:          Basis functions:        0.1000000000E-13
 ------------------          Fit functions:          0.1000000000E-13



 ===========================
 L I N E A R   S C A L I N G
 ===========================
  

 Cut-off radii density fit:                        0.1000000000E-97
 Overlap cut-off criterion AO matrix elements:     0.1000000000E-97
 Cut-offs for Coulomb potential and fitted density:0.1000000000E-97
 Cut-off criterion for Coulomb multipole terms:    0.1000000000E-97
 Progressive Convergence parameter:                 0.000000000    
1
 ***************************************************************************************************



                                            ***************************
                                            *  C O M P U T A T I O N  *
                                            ***************************
  

 Number of elements of the density matrix on this node (used, total):       190       190



 ===========================================
 Numerical Integration : Fuzzy Cells (Becke)
 ===========================================
  
 Becke grid quality: VERYGOOD       
  
 Lebedev angular grid order:             min:  13 max:  41
 Nr. of radial points:                   min:  68 max:  68

 Total nr. of points:         68
 Nr. of blocks:                1
 Block length:                68
 Nr. of dummy points:          0


 Test of Precision of the Numerical Integration Grid
 ===================================================

 Integral of the Total Core Density:                   1.99999999865610
 Relative Error:                                      -6.720E-10



 ========================
 Density Fitting (zlmFit)
 ========================
  
 ZlmFit Fit Quality: VERYGOOD       
  
 Max L-expansion:                        min:   0 max:   0
 Nr. of radial interpolation points:     min: 140 max: 140



 =====
 S C F  ***  ScaSCF  ***
 =====
  

 CYCLE    1
 SCF Error: norm([F,P])=      0.000000000000, max([F,P])=      0.000000000000
 orbitals (Q,E):
 ---------------
 S :1...3            ( 2.00    -5.3654)  ( 0.00    -2.2073)  ( 0.00    23.6692)
 P :1...3            ( 4.00    -5.0045)  ( 0.00    -2.0150)  ( 0.00    -0.3846)
 D :1...1            ( 0.00    -2.0410)

 CYCLE    2
 SCF Error: norm([F,P])=      4.562993374873, max([F,P])=      2.528971113813
 orbitals (Q,E):
 ---------------
 S :1...2            ( 2.00    -0.1548)  ( 0.00     1.6948)
 P :1...2            ( 4.00     0.1773)  ( 0.00     0.9552)
 D :1...1            ( 0.00     1.4649)

 CYCLE    3
  SDIIS (wt  0.000):  0.3378  0.6622
 A-DIIS (wt  1.000):  0.4814  0.5186
  DIIS coefficients:  0.4814  0.5186
 SCF Error: norm([F,P])=      2.723155250500, max([F,P])=      1.798667049295
 orbitals (Q,E):
 ---------------
 S :1...2            ( 2.00    -1.1093)  ( 0.00     0.7549)
 P :1...2            ( 4.00    -0.5518)  ( 0.00     0.2590)
 D :1...1            ( 0.00     0.8910)

 CYCLE    4
  SDIIS (wt  0.000):  0.0919  0.9081
 A-DIIS (wt  1.000):  0.0000  1.0000
  DIIS coefficients:  0.0000  1.0000
 SCF Error: norm([F,P])=      0.289027138405, max([F,P])=      0.130648623511
 orbitals (Q,E):
 ---------------
 S :1...2            ( 2.00    -0.7707)  ( 0.00     0.9912)
 P :1...2            ( 4.00    -0.2284)  ( 0.00     0.4046)
 D :1...1            ( 0.00     1.1288)

 CYCLE    5
  SDIIS (wt  0.000):  0.0260  0.6740  0.3001
 A-DIIS (wt  1.000):  0.0000  0.5764  0.4236
  DIIS coefficients:  0.0000  0.5764  0.4236
 SCF Error: norm([F,P])=      0.416615089426, max([F,P])=      0.232643669786
 orbitals (Q,E):
 ---------------
 S :1...2            ( 2.00    -0.8764)  ( 0.00     0.9107)
 P :1...2            ( 4.00    -0.3280)  ( 0.00     0.3557)
 D :1...1            ( 0.00     1.0703)

 CYCLE    6
  SDIIS (wt  0.942):  0.0005  0.0237 -0.0203  0.9960
 A-DIIS (wt  0.058):  0.0000  0.0000  0.0000  1.0000
  DIIS coefficients:  0.0005  0.0224 -0.0191  0.9962
 SCF Error: norm([F,P])=      0.013723272809, max([F,P])=      0.006719036732
 orbitals (Q,E):
 ---------------
 S :1...2            ( 2.00    -0.8830)  ( 0.00     0.9058)
 P :1...2            ( 4.00    -0.3343)  ( 0.00     0.3521)
 D :1...1            ( 0.00     1.0657)

 CYCLE    7
  SDIIS (wt  1.000): -0.0000  0.0016  0.0023  0.0424  0.9537
  DIIS coefficients: -0.0000  0.0016  0.0023  0.0424  0.9537
 SCF Error: norm([F,P])=      0.001103645928, max([F,P])=      0.000634039171
 orbitals (Q,E):
 ---------------
 S :1...2            ( 2.00    -0.8827)  ( 0.00     0.9060)
 P :1...2            ( 4.00    -0.3340)  ( 0.00     0.3523)
 D :1...1            ( 0.00     1.0659)

 CYCLE    8
  SDIIS (wt  1.000): -0.0000 -0.0001  0.0000 -0.0032  0.0268  0.9765
  DIIS coefficients: -0.0000 -0.0001  0.0000 -0.0032  0.0268  0.9765
 SCF Error: norm([F,P])=      0.000035919805, max([F,P])=      0.000020263970
 orbitals (Q,E):
 ---------------
 S :1...2            ( 2.00    -0.8827)  ( 0.00     0.9060)
 P :1...2            ( 4.00    -0.3340)  ( 0.00     0.3522)
 D :1...1            ( 0.00     1.0659)

 CYCLE    9
  SDIIS (wt  1.000): -0.0000  0.0008  0.0188  0.9804
  DIIS coefficients: -0.0000  0.0008  0.0188  0.9804
 SCF Error: norm([F,P])=      0.000000326384, max([F,P])=      0.000000183924
 orbitals (Q,E):
 ---------------
 S :1...2            ( 2.00    -0.8827)  ( 0.00     0.9060)
 P :1...2            ( 4.00    -0.3340)  ( 0.00     0.3522)
 D :1...1            ( 0.00     1.0659)

 CYCLE   10
  SDIIS (wt  1.000):  0.0000  0.0003  0.9996
  DIIS coefficients:  0.0000  0.0003  0.9996
 SCF Error: norm([F,P])=      0.000000000559, max([F,P])=      0.000000000306
 orbitals (Q,E):
 ---------------
 S :1...2            ( 2.00    -0.8827)  ( 0.00     0.9060)
 P :1...2            ( 4.00    -0.3340)  ( 0.00     0.3522)
 D :1...1            ( 0.00     1.0659)

 SCF CONVERGED

 CYCLE   11
1
 ***************************************************************************************************



                                                *******************
                                                *  R E S U L T S  *
                                                *******************
  
 *** Using FIT density in Focky
  SDIIS (wt  1.000): -0.0000  0.0143  0.9857
  DIIS coefficients: -0.0000  0.0143  0.9857
 SCF Error: norm([F,P])=      0.000000000010, max([F,P])=      0.000000000006

 Scaled ZORA Orbital Energies, per Irrep and Spin:
 =================================================
                        Occup              E (au)              E (eV)       Diff (eV) with prev. cycle
                        -----      --------------------        ------       --------------------------
 S
               1        2.000     -0.88272313143209E+00       -24.020              -9.28E-11
               2        0.000      0.90601345014671E+00        24.654
               3        0.000      0.29578810816937E+02       804.880
 P
               1        4.000     -0.33400585272070E+00        -9.089              -8.94E-11
               2        0.000      0.35224911365993E+00         9.585
               3        0.000      0.38342927625315E+01       104.336
 D
               1        0.000      0.10658965783141E+01        29.005


 Partially Occupied:
               1 P                -0.33400585272070E+00
  
 HOMO :        1 S                -0.88272313143209E+00
 LUMO :        2 P                 0.35224911365993E+00
  


 Orbital Energies, all Irreps
 ========================================

 Irrep        no.  (spin)   Occup              E (au)                E (eV)
 ---------------------------------------------------------------------------
 S             1             2.00       -0.88272313143209E+00       -24.0201
 P             1             4.00       -0.33400585272070E+00        -9.0888
 P             2             0.00        0.35224911365993E+00         9.5852
 S             2             0.00        0.90601345014671E+00        24.6539
 D             1             0.00        0.10658965783141E+01        29.0045
 P             3             0.00        0.38342927625315E+01       104.3364
 S             3             0.00        0.29578810816937E+02       804.8804


 Scaled ZORA Orbital Energies of the Core Orbitals:
 ==================================================

 (Note that the atoms are grouped by atomtype, see the labels, and may hence NOT be in input order)

 AtomType  Orbital  Atom                   E (au)                        E (eV)
 --------  -------  ----           --------------------        ----------------
 O           1S        1          -0.18925919758629E+02                -515.000



 =======================================
 M U L L I K E N   P O P U L A T I O N S
 =======================================
  
 The survey below gives for each atom:
 a) the total charge (Z minus electrons)
 b) the net spin polarization (nr of electrons spin-A minus spin-B)
 c) for each spin the atomic electron valence density (integrated) per L-value.

 Atom              Charge    Spin density          S         P         D         F
 ----              ------    ------------       ------    ------    ------    ------
 1 O              -0.0000                       2.0000    4.0000    0.0000    0.0000

 Populations of individual BAS functions
 ----------------------------------------
 1 O            0.0005  0.9226  1.0966 -0.0196  0.3346  0.3346  0.3346  0.7512  0.7512  0.7512
                0.2476  0.2476  0.2476  0.0000  0.0000  0.0000  0.0000  0.0000  0.0000

 Gross Charges per Atom (Z minus electrons)
 ==========================================
            -0.0000
 Net Total: -0.00000000



 =======================================================================
 Electrostatic potential at the Nuclei due to electrons and other nuclei
 =======================================================================
  
         Atom                  Potential
         ----                  ---------
     1)   O                  22.20265662
 
 
 ========================
 No memory problems found
 ========================
 
 Maximum number of active allocate calls:         389
 
 *******************************************************************************

                             A D F   E X I T
 NORMAL TERMINATION



 =================
 Timing Statistics
 =================
  
 Total Used :                     CPU=        0.43      System=        0.02     Elapsed=        0.48

 Calls  Section                     ( Mean, Percentage )
 ---------------------------------------------------------------------------------------------------
     3  ><      ................      0.00    0.93             0.00    0.00             0.00    0.91
     1  INIT    ................      0.06   14.95             0.01   40.00             0.08   16.12
     1  GEOMET  ................      0.02    3.74             0.00    0.00             0.02    4.84
     1  INPUTA  ................      0.00    0.93             0.00    0.00             0.00    0.71
     1  MAINSY  ................      0.01    2.80             0.00    0.00             0.01    2.81
     1  SYMFIT  ................      0.00    0.00             0.00    0.00             0.00    0.34
     1  CORORT  ................      0.00    0.00             0.00    0.00             0.00    0.32
     1  SYMORB  ................      0.00    0.93             0.00    0.00             0.00    0.18
     1  CLSMAT  ................      0.00    0.00             0.00   20.00             0.01    1.22
     1  ORTHON  ................      0.00    0.93             0.00    0.00             0.01    1.09
     1  GENPT   ................      0.02    3.74             0.00    0.00             0.02    3.12
     1  PTBAS   ................      0.00    0.93             0.00    0.00             0.01    1.15
    11  FOCKY   ................      0.02   55.14             0.00   40.00             0.02   51.43
    11  FOCKTR  ................      0.00    0.93             0.00    0.00             0.00    1.55
    11  SDIIS   ................      0.00    5.61             0.00    0.00             0.00    6.31
     1  COREPS  ................      0.02    4.67             0.00    0.00             0.02    3.64
     1  POPAN   ................      0.00    0.93             0.00    0.00             0.01    1.12
     1  DEBYE   ................      0.00    0.00             0.00    0.00             0.00    0.39
     1  EXIT PROCEDURE .........      0.01    2.80             0.00    0.00             0.01    2.75


 Currently Open Files (EXIT00)
 ====================

 Unit    Access Format  Status   Type       Ident (file)
 -------------------------------------------------------
   3      SEQ    FORM   TRANSP  NORMAL      LOGFILE
                                          ( logfile )

 ***************************************************************************************************
 (LOGFILE)
 <Oct18-2020> <22:22:39>  DIRAC 2019  RunTime: Oct18-2020 22:22:39  Nodes: 1  Procs: 1
 <Oct18-2020> <22:22:39>  NORMAL TERMINATION
 <Oct18-2020> <22:22:39>  END
 <Oct18-2020> <22:22:40>  ADF 2019  RunTime: Oct18-2020 22:22:40  Nodes: 1  Procs: 1
 <Oct18-2020> <22:22:40>  Hydrogen (TZP)
 <Oct18-2020> <22:22:40>  RunType   : CREATE
 <Oct18-2020> <22:22:40>  Net Charge: 0 (Nuclei minus Electrons)
 <Oct18-2020> <22:22:40>  Symmetry  : ATOM
  Coordinates
    Atom         X           Y           Z   (Angstrom)
    1.H         0.000000    0.000000    0.000000
 <Oct18-2020> <22:22:40>  >>>> CORORT
 <Oct18-2020> <22:22:40>  >>>> CLSMAT
 <Oct18-2020> <22:22:40>  >>>> ORTHON
 <Oct18-2020> <22:22:40>  >>>> GENPT
 <Oct18-2020> <22:22:40>  Block Length=  64
 <Oct18-2020> <22:22:40>  >>>> PTBAS
 <Oct18-2020> <22:22:40>  >>>> CYCLE
 <Oct18-2020> <22:22:40>              |Error|         MaxErr       Wt(A-DIIS)
 <Oct18-2020> <22:22:40>      1      0.00000000      0.00000000
 <Oct18-2020> <22:22:40>      2      0.03153787      0.03011049
 <Oct18-2020> <22:22:40>      3      0.00861799      0.00834303    100.0
 <Oct18-2020> <22:22:40>      4      0.00173235      0.00171862      0.7
 <Oct18-2020> <22:22:40>      5      0.00004367      0.00003977      0.0
 <Oct18-2020> <22:22:40>      6      0.00000238      0.00000216      0.0
 <Oct18-2020> <22:22:40>      7      0.00000001      0.00000001      0.0
 <Oct18-2020> <22:22:40>  SCF converged
 <Oct18-2020> <22:22:40>      8      0.00000000      0.00000000      0.0
 <Oct18-2020> <22:22:40>  >>>> POPAN
 <Oct18-2020> <22:22:40>  >>>> DEBYE
 <Oct18-2020> <22:22:40>  NORMAL TERMINATION
 <Oct18-2020> <22:22:40>  END
 <Oct18-2020> <22:22:40>  DIRAC 2019  RunTime: Oct18-2020 22:22:40  Nodes: 1  Procs: 1
 <Oct18-2020> <22:22:40>  NORMAL TERMINATION
 <Oct18-2020> <22:22:40>  END
 <Oct18-2020> <22:22:40>  ADF 2019  RunTime: Oct18-2020 22:22:40  Nodes: 1  Procs: 1
 <Oct18-2020> <22:22:40>  Oxygen (TZP, 1s frozen)
 <Oct18-2020> <22:22:40>  RunType   : CREATE
 <Oct18-2020> <22:22:40>  Net Charge: 0 (Nuclei minus Electrons)
 <Oct18-2020> <22:22:40>  Symmetry  : ATOM
  Coordinates
    Atom         X           Y           Z   (Angstrom)
    1.O         0.000000    0.000000    0.000000
 <Oct18-2020> <22:22:40>  >>>> CORORT
 <Oct18-2020> <22:22:40>  >>>> CLSMAT
 <Oct18-2020> <22:22:40>  >>>> ORTHON
 <Oct18-2020> <22:22:40>  >>>> GENPT
 <Oct18-2020> <22:22:40>  Block Length=  68
 <Oct18-2020> <22:22:40>  >>>> PTBAS
 <Oct18-2020> <22:22:40>  >>>> CYCLE
 <Oct18-2020> <22:22:40>              |Error|         MaxErr       Wt(A-DIIS)
 <Oct18-2020> <22:22:40>      1      0.00000000      0.00000000
 <Oct18-2020> <22:22:40>      2      4.56299337      2.52897111
 <Oct18-2020> <22:22:40>      3      2.72315525      1.79866705    100.0
 <Oct18-2020> <22:22:41>      4      0.28902714      0.13064862    100.0
 <Oct18-2020> <22:22:41>      5      0.41661509      0.23264367    100.0
 <Oct18-2020> <22:22:41>      6      0.01372327      0.00671904      5.8
 <Oct18-2020> <22:22:41>      7      0.00110365      0.00063404      0.0
 <Oct18-2020> <22:22:41>      8      0.00003592      0.00002026      0.0
 <Oct18-2020> <22:22:41>      9      0.00000033      0.00000018      0.0
 <Oct18-2020> <22:22:41>     10      0.00000000      0.00000000      0.0
 <Oct18-2020> <22:22:41>  SCF converged
 <Oct18-2020> <22:22:41>     11      0.00000000      0.00000000      0.0
 <Oct18-2020> <22:22:41>  >>>> POPAN
 <Oct18-2020> <22:22:41>  >>>> DEBYE
 <Oct18-2020> <22:22:41>  NORMAL TERMINATION
 <Oct18-2020> <22:22:41>  END

 *******************************************************************************
 *                                                                             *
 *  -------------------------------------                                      *
 *   Amsterdam Density Functional  (ADF)         2019                          *
 *  -------------------------------------                                      *
 *                                               r79301 2019-11-09             *
 *                                                                             *
 *                                                                             *
 *                            =====================                            *
 *                            |                   |                            *
 *                            |     D I R A C     |                            *
 *                            |                   |                            *
 *                            =====================                            *
 *                                                                             *
 *                                                                             *
 *   Online information and documentation:  https://www.scm.com/support/       *
 *   E-mail:  support@scm.com   info@scm.com                                   *
 *                                                                             *
 *   Scientific publications using ADF results must be properly referenced     *
 *   See the User Manuals (or the web site) for recommended citations          *
 *   The terms and conditions of the End User License Agreement apply to       *
 *   the use of ADF, https://www.scm.com/license-terms/                        *
 *                                                                             *
 **********************  x86_64_linux_intel / intelmpi  ************************
 
 
 
  
 DIRAC 2019  RunTime: Oct18-2020 22:22:41  Nodes: 1  Procs: 1

 Temporary files are created in /scratch/kid_0.656397751 (0x58465342)

1
 TUNGSTEN ATOM 4d CORE RELATIVISTIC, Point Nuc, A and c from 
 N J RN H ZN XION ANUC CLIGHT
 5000   22100.00000000197.36710137 74.00000000  0.00000000  183.950932  0.1370360E+03
  PH   PHI     EPS        DEL        DELRVR
  0.30  0.30     2500.00  0.00001000  0.00001000
 IDIRC  NC1  NDEBU NPRIN  IPUN IRCOR IWCOR
   1   300     0     0     0     0    14
   XALPHA      XLATTER      RNUC
  0.70000000  0.00000000  0.00000000 Point Charge
   XN   XL   XJ      XE          XZ      XDELL
  1.0  0.0  0.5   -2600.000       2.000     0.00000
  2.0  0.0  0.5    -425.000       2.000     0.00000
  2.0  1.0  0.5    -425.000       2.000     0.00000
  2.0  1.0  1.5    -425.000       4.000     0.00000
  3.0  0.0  0.5    -100.000       2.000     0.00000
  3.0  1.0  0.5    -100.000       2.000     0.00000
  3.0  1.0  1.5    -100.000       4.000     0.00000
  3.0  2.0  1.5     -80.000       4.000     0.00000
  3.0  2.0  2.5     -80.000       6.000     0.00000
  4.0  0.0  0.5     -22.000       2.000     0.00000
  4.0  1.0  0.5     -20.000       2.000     0.00000
  4.0  1.0  1.5     -20.000       4.000     0.00000
  4.0  2.0  1.5     -11.000       4.000     0.00000
  4.0  2.0  2.5     -11.000       6.000     0.00000
  4.0  3.0  2.5      -1.000       6.000     0.00000
  4.0  3.0  3.5      -1.000       8.000     0.00000
  5.0  0.0  0.5      -3.000       2.000     0.00000
  5.0  1.0  0.5      -2.200       2.000     0.00000
  5.0  1.0  1.5      -2.200       4.000     0.00000
  5.0  2.0  1.5      -0.500       4.000     0.00000
  5.0  2.0  2.5      -0.500       0.000     0.00000
  6.0  0.0  0.5      -0.200       2.000     0.00000
 ICORP=  0  NPCL=  0  DEMP=0.00  PEPS=0.000000
 R(1)=  0.1000000E-08 D=  0.1005080E+01 RNUC=  0.0000000E+00
 converged at cycle   63  DENSITY AVERAGING    0.1536
  MAXIMUM ERROR IN R.V(R) IS   0.78838062E-05
 Q,EY,EV,EZ,ESUM,ETOT,RHO  0.740000E+02 -0.431420E+03 -0.281568E+05 -0.403919E+05 -0.993885E+04 -0.161643E+05  0.726391E-09


 DIRAC CALCULATION
1                    TUNGSTEN ATOM 4d CORE RELATIVISTIC, Point Nuc, A and c from libtc


 EXCHANGE COEFFICIENT=  0.7000000           TAIL CORRECTION=  0.           NUCLEAR RADIUS=  0.000E+00
0                       ORBITAL    N    L    J     ELECTRONS     EIGENVALUE                DELTA OF EIGENV.

                          1S1/2  1.0  0.0  0.5     2.000       -0.2549514E+04                 0.5980248E-04
                          2S1/2  2.0  0.0  0.5     2.000       -0.4399118E+03                 0.5052420E-04
                          2P1/2  2.0  1.0  0.5     2.000       -0.4208427E+03                 0.5265062E-04
                          2P3/2  2.0  1.0  1.5     4.000       -0.3711192E+03                 0.5139441E-04
                          3S1/2  3.0  0.0  0.5     2.000       -0.1012881E+03                 0.3437035E-04
                          3P1/2  3.0  1.0  0.5     2.000       -0.9277148E+02                 0.3553128E-04
                          3P3/2  3.0  1.0  1.5     4.000       -0.8201733E+02                 0.3404634E-04
                          3D3/2  3.0  2.0  1.5     4.000       -0.6762803E+02                 0.3680712E-04
                          3D5/2  3.0  2.0  2.5     6.000       -0.6528623E+02                 0.3629511E-04
                          4S1/2  4.0  0.0  0.5     2.000       -0.2084139E+02                 0.1939427E-04
                          4P1/2  4.0  1.0  0.5     2.000       -0.1730737E+02                 0.1933978E-04
                          4P3/2  4.0  1.0  1.5     4.000       -0.1480597E+02                 0.1810922E-04
                          4D3/2  4.0  2.0  1.5     4.000       -0.8989319E+01                 0.1779394E-04
                          4D5/2  4.0  2.0  2.5     6.000       -0.8528007E+01                 0.1741170E-04
                          4F5/2  4.0  3.0  2.5     6.000       -0.1237480E+01                 0.1544089E-04
                          4F7/2  4.0  3.0  3.5     8.000       -0.1154634E+01                 0.1522033E-04
                          5S1/2  5.0  0.0  0.5     2.000       -0.2863514E+01                 0.7979521E-05
                          5P1/2  5.0  1.0  0.5     2.000       -0.1813289E+01                 0.7246225E-05
                          5P3/2  5.0  1.0  1.5     4.000       -0.1448762E+01                 0.6602120E-05
                          5D3/2  5.0  2.0  1.5     4.000       -0.1486933E+00                 0.3973088E-05
                          5D5/2  5.0  2.0  2.5     0.000       -0.1223153E+00                 0.3735081E-05
                          6S1/2  6.0  0.0  0.5     2.000       -0.1847434E+00                 0.1808440E-05


                                        NUCLEAR CHARGE=   74.000000
                            INTEGRAL OF CHARGE DENSITY=   74.000000
                           SUM OF THE ORBITAL ENERGIES=  -9938.8529
                                          TOTAL ENERGY= -16164.2530
                                        KINETIC ENERGY=  18217.9700
                             NUCLEAR ATTRACTION ENERGY= -40391.9132
                             ELECTRON REPULSION ENERGY=   6333.2551
                                       EXCHANGE ENERGY=   -323.5649

 *******************************************************************************

                             D I R A C   E X I T
 NORMAL TERMINATION



 =================
 Timing Statistics
 =================
  
 Total Used :                     CPU=        0.68      System=        0.00     Elapsed=        0.69

 Calls  Section                     ( Mean, Percentage )
 ---------------------------------------------------------------------------------------------------
     2  ><      ................      0.00    0.00             0.00    0.00             0.00    0.00
     1  EXIT PROCEDURE .........      0.68  100.00             0.00  100.00             0.69  100.00


 Currently Open Files (EXIT00)
 ====================

 Unit    Access Format  Status   Type       Ident (file)
 -------------------------------------------------------
   3      SEQ    FORM   TRANSP  NORMAL      LOGFILE
                                          ( logfile )
 
Create W   file=TZP-W.4d
XC
  GGA PBE
End
relativistic ZORA
Corepotentials t12.rel
End

 *******************************************************************************
 *                                                                             *
 *  -------------------------------------                                      *
 *   Amsterdam Density Functional  (ADF)         2019                          *
 *  -------------------------------------                                      *
 *                                               r79301 2019-11-09             *
 *                                                                             *
 *                                                                             *
 *                              =================                              *
 *                              |               |                              *
 *                              |     A D F     |                              *
 *                              |               |                              *
 *                              =================                              *
 *                                                                             *
 *                                                                             *
 *   Online information and documentation:  https://www.scm.com/support/       *
 *   E-mail:  support@scm.com   info@scm.com                                   *
 *                                                                             *
 *   Scientific publications using ADF results must be properly referenced     *
 *   See the User Manuals (or the web site) for recommended citations          *
 *   The terms and conditions of the End User License Agreement apply to       *
 *   the use of ADF, https://www.scm.com/license-terms/                        *
 *                                                                             *
 **********************  x86_64_linux_intel / intelmpi  ************************
 
 
 
  
 ADF 2019  RunTime: Oct18-2020 22:22:42  Nodes: 1  Procs: 1

 Temporary files are created in /scratch/kid_0.520396316 (0x58465342)

 Tungsten (TZP, 4d frozen)



 ===========================
 A T T A C H E D   F I L E S
 ===========================
  
 CREATE - Data File:    TZP-W.4d
                        Tungsten (TZP, 4d frozen)
 Core Potentials:
         file : t12.rel



 ===============================
 M O D E L   P A R A M E T E R S
 ===============================
  
 DENSITY FUNCTIONAL POTENTIAL (scf)
    LDA:                               PW92                                    == Not Default ==
    Gradient Corrections:              PBEc PBEx                               == Not Default ==

 SPIN  (restricted / unrestr.)
    Molecule:                          Restricted                               

 OTHER ASPECTS
    Relativistic Corrections:          scalar (ZORA,MAPA)                      == Not Default ==

    Nuclear Charge Density Model:      Point Charge Nuclei                      
    Core Treatment:                    Frozen Orbital(s)                        

    Hyperfine or Zeeman Interaction:   ---                                      



 =====================================
 S Y M M E T R Y ,   E L E C T R O N S
 =====================================
  
 Symmetry: ATOM

 Irreducible Representations, including subspecies
 -------------------------------------------------
 S
 P:x  P:y  P:z
 D:z2  D:x2-y2  D:xy  D:xz  D:yz
 F:z3  F:z  F:xyz  F:z2x  F:z2y  F:x  F:y


 Configuration of Valence Electrons
 ==================================

          Occupation Numbers
          -------------------------------------------------
 S        2*2
 P        6
 D        4
 F        14
          -------------------------------------------------

 Total:   28

 Net Charge: 0 (Nuclei minus Electrons)

 Preset values for MO occupations will be applied through SCF cycle no. 1000000
 Thereafter, the program will assign electrons to MOs that are spatially
 similar to the occupied MOs in a "reference" cycle ("KeepOrbitals").
 The reference cycle is always the PREVIOUS cycle: it will evolve with
 the SCF procedure.



 ================================
 (Slater-type)  F U N C T I O N S  ***  (Basis and Fit)  ***
 ================================
  

 Atom Type    1  (W)
 ==============

 Valence Basis Sets:  25
 -----------------------
   1 S   52.000000
   2 S   33.250000
   3 S   19.100000
   4 S   11.650000
   2 P   36.850000
   3 P   16.500000
   4 P   11.550000
   3 D   20.100000
   4 D   10.300000
   1 S  163.900000
   5 S    6.050000
   5 S    3.950000
   6 S    2.850000
   6 S    1.800000
   6 S    1.140000
   5 P    5.900000
   5 P    4.000000
   5 P    2.700000
   5 D    4.150000
   5 D    2.250000
   5 D    1.200000
   4 F   13.550000
   4 F    7.050000
   4 F    3.550000
   6 P    1.800000

 Frozen Core Shells
 ------------------
    S:  4
    P:  3
    D:  2


 BAS: List of all Elementary Cartesian Basis Functions
 =====================================================

 The numbering in the list below (to the right of the function characteristics) is referred
 to in print-outs of MO eigenvectors and Mulliken populations in the BAS representation
 (as contrasted to the SFO representation).

 Notes:
 1. The functions are characterized by a polynomial prefactor (powers of x,y,z and r) and
    an exponential decay factor alpha.
 2. Since the basis sets are specific for an atom TYPE, the individual functions occur on
    all atoms of that type.
 3. The word 'Core' in the left margin signals that it is a Core Function (CF) : not a
    degree of freedom in the valence set, but only used to ensure orthogonalization of
    the other valence basis functions on the frozen Core Orbitals.


 (power of) X  Y  Z  R     Alpha  on Atom
            ==========     =====     ==========

 W                                    1
                                  ---------------------------------------------------------------------------
    Core    0  0  0  0    52.000      1
    Core    0  0  0  1    33.250      2
    Core    0  0  0  2    19.100      3
    Core    0  0  0  3    11.650      4
    Core    1  0  0  0    36.850      5
    Core    0  1  0  0    36.850      6
    Core    0  0  1  0    36.850      7
    Core    1  0  0  1    16.500      8
    Core    0  1  0  1    16.500      9
    Core    0  0  1  1    16.500     10
    Core    1  0  0  2    11.550     11
    Core    0  1  0  2    11.550     12
    Core    0  0  1  2    11.550     13
    Core    2  0  0  0    20.100     14
    Core    1  1  0  0    20.100     15
    Core    1  0  1  0    20.100     16
    Core    0  2  0  0    20.100     17
    Core    0  1  1  0    20.100     18
    Core    0  0  2  0    20.100     19
    Core    2  0  0  1    10.300     20
    Core    1  1  0  1    10.300     21
    Core    1  0  1  1    10.300     22
    Core    0  2  0  1    10.300     23
    Core    0  1  1  1    10.300     24
    Core    0  0  2  1    10.300     25
            0  0  0  0   163.900     26
            0  0  0  4     6.050     27
            0  0  0  4     3.950     28
            0  0  0  5     2.850     29
            0  0  0  5     1.800     30
            0  0  0  5     1.140     31
            1  0  0  3     5.900     32
            0  1  0  3     5.900     33
            0  0  1  3     5.900     34
            1  0  0  3     4.000     35
            0  1  0  3     4.000     36
            0  0  1  3     4.000     37
            1  0  0  3     2.700     38
            0  1  0  3     2.700     39
            0  0  1  3     2.700     40
            2  0  0  2     4.150     41
            1  1  0  2     4.150     42
            1  0  1  2     4.150     43
            0  2  0  2     4.150     44
            0  1  1  2     4.150     45
            0  0  2  2     4.150     46
            2  0  0  2     2.250     47
            1  1  0  2     2.250     48
            1  0  1  2     2.250     49
            0  2  0  2     2.250     50
            0  1  1  2     2.250     51
            0  0  2  2     2.250     52
            2  0  0  2     1.200     53
            1  1  0  2     1.200     54
            1  0  1  2     1.200     55
            0  2  0  2     1.200     56
            0  1  1  2     1.200     57
            0  0  2  2     1.200     58
            3  0  0  0    13.550     59
            2  1  0  0    13.550     60
            2  0  1  0    13.550     61
            1  2  0  0    13.550     62
            1  1  1  0    13.550     63
            1  0  2  0    13.550     64
            0  3  0  0    13.550     65
            0  2  1  0    13.550     66
            0  1  2  0    13.550     67
            0  0  3  0    13.550     68
            3  0  0  0     7.050     69
            2  1  0  0     7.050     70
            2  0  1  0     7.050     71
            1  2  0  0     7.050     72
            1  1  1  0     7.050     73
            1  0  2  0     7.050     74
            0  3  0  0     7.050     75
            0  2  1  0     7.050     76
            0  1  2  0     7.050     77
            0  0  3  0     7.050     78
            3  0  0  0     3.550     79
            2  1  0  0     3.550     80
            2  0  1  0     3.550     81
            1  2  0  0     3.550     82
            1  1  1  0     3.550     83
            1  0  2  0     3.550     84
            0  3  0  0     3.550     85
            0  2  1  0     3.550     86
            0  1  2  0     3.550     87
            0  0  3  0     3.550     88
            1  0  0  4     1.800     89
            0  1  0  4     1.800     90
            0  0  1  4     1.800     91

 Total number of charge fitting functions (nprimf)       329
 Total number of Cartesian basis functions (naos)         91
 Total number of Cartesian core functions  (ncos)         25



 BAS: List of all Elementary Cartesian Basis Functions
 =====================================================

 The numbering in the list below (to the right of the function characteristics) is referred
 to in print-outs of MO eigenvectors and Mulliken populations in the BAS representation
 (as contrasted to the SFO representation).

 Notes:
 1. The functions are characterized by a polynomial prefactor (powers of x,y,z and r) and
    an exponential decay factor alpha.
 2. Since the basis sets are specific for an atom TYPE, the individual functions occur on
    all atoms of that type.
 3. The word 'Core' in the left margin signals that it is a Core Function (CF) : not a
    degree of freedom in the valence set, but only used to ensure orthogonalization of
    the other valence basis functions on the frozen Core Orbitals.


 (power of) X  Y  Z  R     Alpha  on Atom
            ==========     =====     ==========

 W                                    1
                                  ---------------------------------------------------------------------------
    Core    0  0  0  0    52.000      1
    Core    0  0  0  1    33.250      2
    Core    0  0  0  2    19.100      3
    Core    0  0  0  3    11.650      4
    Core    1  0  0  0    36.850      5
    Core    0  1  0  0    36.850      6
    Core    0  0  1  0    36.850      7
    Core    1  0  0  1    16.500      8
    Core    0  1  0  1    16.500      9
    Core    0  0  1  1    16.500     10
    Core    1  0  0  2    11.550     11
    Core    0  1  0  2    11.550     12
    Core    0  0  1  2    11.550     13
    Core    2  0  0  0    20.100     14
    Core    1  1  0  0    20.100     15
    Core    1  0  1  0    20.100     16
    Core    0  2  0  0    20.100     17
    Core    0  1  1  0    20.100     18
    Core    0  0  2  0    20.100     19
    Core    2  0  0  1    10.300     20
    Core    1  1  0  1    10.300     21
    Core    1  0  1  1    10.300     22
    Core    0  2  0  1    10.300     23
    Core    0  1  1  1    10.300     24
    Core    0  0  2  1    10.300     25
            0  0  0  0   163.900     26
            0  0  0  4     6.050     27
            0  0  0  4     3.950     28
            0  0  0  5     2.850     29
            0  0  0  5     1.800     30
            0  0  0  5     1.140     31
            1  0  0  3     5.900     32
            0  1  0  3     5.900     33
            0  0  1  3     5.900     34
            1  0  0  3     4.000     35
            0  1  0  3     4.000     36
            0  0  1  3     4.000     37
            1  0  0  3     2.700     38
            0  1  0  3     2.700     39
            0  0  1  3     2.700     40
            2  0  0  2     4.150     41
            1  1  0  2     4.150     42
            1  0  1  2     4.150     43
            0  2  0  2     4.150     44
            0  1  1  2     4.150     45
            0  0  2  2     4.150     46
            2  0  0  2     2.250     47
            1  1  0  2     2.250     48
            1  0  1  2     2.250     49
            0  2  0  2     2.250     50
            0  1  1  2     2.250     51
            0  0  2  2     2.250     52
            2  0  0  2     1.200     53
            1  1  0  2     1.200     54
            1  0  1  2     1.200     55
            0  2  0  2     1.200     56
            0  1  1  2     1.200     57
            0  0  2  2     1.200     58
            3  0  0  0    13.550     59
            2  1  0  0    13.550     60
            2  0  1  0    13.550     61
            1  2  0  0    13.550     62
            1  1  1  0    13.550     63
            1  0  2  0    13.550     64
            0  3  0  0    13.550     65
            0  2  1  0    13.550     66
            0  1  2  0    13.550     67
            0  0  3  0    13.550     68
            3  0  0  0     7.050     69
            2  1  0  0     7.050     70
            2  0  1  0     7.050     71
            1  2  0  0     7.050     72
            1  1  1  0     7.050     73
            1  0  2  0     7.050     74
            0  3  0  0     7.050     75
            0  2  1  0     7.050     76
            0  1  2  0     7.050     77
            0  0  3  0     7.050     78
            3  0  0  0     3.550     79
            2  1  0  0     3.550     80
            2  0  1  0     3.550     81
            1  2  0  0     3.550     82
            1  1  1  0     3.550     83
[...]
 <Oct18-2020> <22:27:36>     11      0.00074342      0.00016376      0.0
 <Oct18-2020> <22:27:37>     12      0.00017007      0.00003161      0.0
 <Oct18-2020> <22:27:37>     13      0.00005251      0.00001332      0.0
 <Oct18-2020> <22:27:38>     14      0.00004977      0.00001392      0.0
 <Oct18-2020> <22:27:38>     15      0.00000592      0.00000116      0.0
 <Oct18-2020> <22:27:39>     16      0.00000177      0.00000038      0.0
 <Oct18-2020> <22:27:39>  SCF converged
 <Oct18-2020> <22:27:39>     17      0.00000088      0.00000015      0.0
 <Oct18-2020> <22:27:39>  >>>> TOTEN
 <Oct18-2020> <22:27:40>  >>>> POPAN
 <Oct18-2020> <22:27:40>  >>>> DEBYE
 <Oct18-2020> <22:27:40>  >>>> ENGRAD
 <Oct18-2020> <22:27:41>  current energy                               -2.84818170 Hartree
 <Oct18-2020> <22:27:41>  energy change                      -0.00001400     0.00100000    T
 <Oct18-2020> <22:27:41>  constrained gradient max            0.00207508     0.00100000    F
 <Oct18-2020> <22:27:41>  constrained gradient rms            0.00054875     0.00066667    T
 <Oct18-2020> <22:27:41>  gradient max                        0.00207508
 <Oct18-2020> <22:27:41>  gradient rms                        0.00054875
 <Oct18-2020> <22:27:41>  cart. step max                      0.01071750     0.01000000    F
 <Oct18-2020> <22:27:41>  cart. step rms                      0.00351670     0.00666667    T
  Coordinates in Geometry Cycle 27
    Atom         X           Y           Z   (Angstrom)
    1.W        -1.053505    0.168436    0.091943
    2.O        -0.956775   -0.086802    1.811713
    3.O         0.794073   -0.054142   -0.519479
    4.O        -2.541199    1.421527    0.088258
    5.O        -1.122635    1.026385   -2.226729
    6.O        -1.747707   -1.304922   -0.525648
    7.O         0.054781    2.266616    0.308189
    8.H         0.878464    2.313310   -0.218989
    9.H        -0.485778    3.029305    0.020219
   10.H        -2.748400    1.800356   -0.789070
   11.H        -1.642189    0.414682   -2.788572
   12.H        -0.203753    0.913550   -2.548415
   13.H         0.957179   -0.940331   -0.899423
 <Oct18-2020> <22:27:41>  >>>> CORORT
 <Oct18-2020> <22:27:41>  >>>> CLSMAT
 <Oct18-2020> <22:27:41>  >>>> ORTHON
 <Oct18-2020> <22:27:41>  >>>> GENPT
 <Oct18-2020> <22:27:41>  Block Length= 128
 <Oct18-2020> <22:27:41>  >>>> PTBAS
 <Oct18-2020> <22:27:41>  combining surface points...
 <Oct18-2020> <22:27:41>  combining surface points...
 <Oct18-2020> <22:27:41>  combining surface points...
 <Oct18-2020> <22:27:41>  >>>> CYCLE
 <Oct18-2020> <22:27:42>              |Error|         MaxErr       Wt(A-DIIS)
 <Oct18-2020> <22:27:42>      1      0.20068752      0.06068080
 <Oct18-2020> <22:27:43>      2      0.49977929      0.14773357    100.0
 <Oct18-2020> <22:27:44>      3      0.16521985      0.02718631    100.0
 <Oct18-2020> <22:27:44>      4      0.31112688      0.09135380    100.0
 <Oct18-2020> <22:27:45>      5      0.24214784      0.05977306    100.0
 <Oct18-2020> <22:27:45>      6      0.14028297      0.02418076     23.4
 <Oct18-2020> <22:27:46>      7      0.07615612      0.01641474     15.6
 <Oct18-2020> <22:27:46>      8      0.03397220      0.00788734      7.0
 <Oct18-2020> <22:27:47>      9      0.01491797      0.00303437      2.1
 <Oct18-2020> <22:27:47>     10      0.00285047      0.00049066      0.0
 <Oct18-2020> <22:27:48>     11      0.00075032      0.00016316      0.0
 <Oct18-2020> <22:27:48>     12      0.00017146      0.00003076      0.0
 <Oct18-2020> <22:27:49>     13      0.00005987      0.00001563      0.0
 <Oct18-2020> <22:27:49>     14      0.00005006      0.00001390      0.0
 <Oct18-2020> <22:27:50>     15      0.00000579      0.00000118      0.0
 <Oct18-2020> <22:27:50>     16      0.00000191      0.00000043      0.0
 <Oct18-2020> <22:27:50>  SCF converged
 <Oct18-2020> <22:27:51>     17      0.00000076      0.00000014      0.0
 <Oct18-2020> <22:27:51>  >>>> TOTEN
 <Oct18-2020> <22:27:52>  >>>> POPAN
 <Oct18-2020> <22:27:52>  >>>> DEBYE
 <Oct18-2020> <22:27:52>  >>>> ENGRAD
 <Oct18-2020> <22:27:52>  current energy                               -2.84818052 Hartree
 <Oct18-2020> <22:27:52>  energy change                       0.00000117     0.00100000    T
 <Oct18-2020> <22:27:52>  constrained gradient max            0.00053942     0.00100000    T
 <Oct18-2020> <22:27:52>  constrained gradient rms            0.00019390     0.00066667    T
 <Oct18-2020> <22:27:52>  gradient max                        0.00053942
 <Oct18-2020> <22:27:52>  gradient rms                        0.00019390
 <Oct18-2020> <22:27:52>  cart. step max                      0.00903041     0.01000000    T
 <Oct18-2020> <22:27:52>  cart. step rms                      0.00302781     0.00666667    T
 <Oct18-2020> <22:27:52>  GEOMETRY CONVERGED
 <Oct18-2020> <22:27:52>  Calculating Energy Terms for Final Geometry
  Coordinates in Geometry Cycle 27
    Atom         X           Y           Z   (Angstrom)
    1.W        -1.053505    0.168436    0.091943
    2.O        -0.956775   -0.086802    1.811713
    3.O         0.794073   -0.054142   -0.519479
    4.O        -2.541199    1.421527    0.088258
    5.O        -1.122635    1.026385   -2.226729
    6.O        -1.747707   -1.304922   -0.525648
    7.O         0.054781    2.266616    0.308189
    8.H         0.878464    2.313310   -0.218989
    9.H        -0.485778    3.029305    0.020219
   10.H        -2.748400    1.800356   -0.789070
   11.H        -1.642189    0.414682   -2.788572
   12.H        -0.203753    0.913550   -2.548415
   13.H         0.957179   -0.940331   -0.899423
 <Oct18-2020> <22:27:52>  >>>> CORORT
 <Oct18-2020> <22:27:52>  >>>> CLSMAT
 <Oct18-2020> <22:27:52>  >>>> ORTHON
 <Oct18-2020> <22:27:53>  >>>> GENPT
 <Oct18-2020> <22:27:53>  Block Length= 128
 <Oct18-2020> <22:27:53>  >>>> PTBAS
 <Oct18-2020> <22:27:53>  combining surface points...
 <Oct18-2020> <22:27:53>  combining surface points...
 <Oct18-2020> <22:27:53>  combining surface points...
 <Oct18-2020> <22:27:53>  >>>> CYCLE
 <Oct18-2020> <22:27:54>              |Error|         MaxErr       Wt(A-DIIS)
 <Oct18-2020> <22:27:54>      1      0.14656426      0.02827682
 <Oct18-2020> <22:27:55>      2      0.49628765      0.18222450    100.0
 <Oct18-2020> <22:27:55>      3      0.16471015      0.03307385    100.0
 <Oct18-2020> <22:27:56>      4      0.30955761      0.11419168    100.0
 <Oct18-2020> <22:27:56>      5      0.24137699      0.07007147    100.0
 <Oct18-2020> <22:27:57>      6      0.14050171      0.02354648     22.8
 <Oct18-2020> <22:27:57>      7      0.07448503      0.01498347     14.1
 <Oct18-2020> <22:27:58>      8      0.03191922      0.00696359      6.0
 <Oct18-2020> <22:27:58>      9      0.01438739      0.00294904      2.0
 <Oct18-2020> <22:27:59>     10      0.00282779      0.00063541      0.0
 <Oct18-2020> <22:27:59>     11      0.00074923      0.00018935      0.0
 <Oct18-2020> <22:28:00>     12      0.00017289      0.00003490      0.0
 <Oct18-2020> <22:28:00>     13      0.00006372      0.00001540      0.0
 <Oct18-2020> <22:28:01>     14      0.00005021      0.00001298      0.0
 <Oct18-2020> <22:28:01>     15      0.00000584      0.00000149      0.0
 <Oct18-2020> <22:28:02>     16      0.00000201      0.00000042      0.0
 <Oct18-2020> <22:28:02>  SCF converged
 <Oct18-2020> <22:28:02>     17      0.00000072      0.00000016      0.0
 <Oct18-2020> <22:28:03>  >>>> TOTEN
 <Oct18-2020> <22:28:04>  QTAIM: determining topology...
 <Oct18-2020> <22:28:04>  >>>> POPAN
 <Oct18-2020> <22:28:04>  >>>> DEBYE
 <Oct18-2020> <22:28:04>  >>>> AMETS
 <Oct18-2020> <22:28:04>  >>>> POPUL
 <Oct18-2020> <22:28:04>   Bond Energy          -2.84818052 a.u.
 <Oct18-2020> <22:28:04>   Bond Energy         -77.50293544 eV
 <Oct18-2020> <22:28:04>   Bond Energy       -1787.26       kcal/mol
 <Oct18-2020> <22:28:04>  >>>> ENHESS
 <Oct18-2020> <22:28:05>  === NUCLEUS:     1
 <Oct18-2020> <22:28:33>  === NUCLEUS:     2
 <Oct18-2020> <22:29:00>  === NUCLEUS:     3
 <Oct18-2020> <22:29:26>  === NUCLEUS:     4
 <Oct18-2020> <22:29:52>  === NUCLEUS:     5
 <Oct18-2020> <22:30:18>  === NUCLEUS:     6
 <Oct18-2020> <22:30:44>  === NUCLEUS:     7
 <Oct18-2020> <22:31:10>  === NUCLEUS:     8
 <Oct18-2020> <22:31:35>  === NUCLEUS:     9
 <Oct18-2020> <22:32:00>  === NUCLEUS:    10
 <Oct18-2020> <22:32:26>  === NUCLEUS:    11
 <Oct18-2020> <22:32:51>  === NUCLEUS:    12
 <Oct18-2020> <22:33:16>  === NUCLEUS:    13
 <Oct18-2020> <22:33:41>  >>>> CALC_HESS_PMAT
 <Oct18-2020> <22:33:43>  >>>> CALC_HESS_WMAT
 <Oct18-2020> <22:33:43>  Symmetry  : NOSYM
 <Oct18-2020> <22:33:43>  >>>> FRAGM
 <Oct18-2020> <22:33:43>  Geometry symmetry displacement    1 out of    4
  Coordinates in Geometry Cycle 27
    Atom         X           Y           Z   (Angstrom)
    1.W        -1.053476    0.168435    0.091967
    2.O        -0.956871   -0.086832    1.811735
    3.O         0.794157   -0.054276   -0.519157
    4.O        -2.541041    1.421694    0.088188
    5.O        -1.123411    1.026141   -2.226983
    6.O        -1.747794   -1.304761   -0.525883
    7.O         0.054867    2.266563    0.308204
    8.H         0.878656    2.313595   -0.218769
    9.H        -0.485648    3.029483    0.020772
   10.H        -2.748206    1.799722   -0.789514
   11.H        -1.637814    0.410290   -2.789088
   12.H        -0.203348    0.919630   -2.547475
   13.H         0.956635   -0.939580   -0.901417
 <Oct18-2020> <22:33:43>  >>>> CORORT
 <Oct18-2020> <22:33:43>  >>>> CLSMAT
 <Oct18-2020> <22:33:43>  >>>> ORTHON
 <Oct18-2020> <22:33:43>  >>>> GENPT
 <Oct18-2020> <22:33:44>  Block Length= 128
 <Oct18-2020> <22:33:44>  >>>> PTBAS
 <Oct18-2020> <22:33:44>  combining surface points...
 <Oct18-2020> <22:33:44>  combining surface points...
 <Oct18-2020> <22:33:44>  combining surface points...
 <Oct18-2020> <22:33:44>  >>>> CYCLE
 <Oct18-2020> <22:33:45>              |Error|         MaxErr       Wt(A-DIIS)
 <Oct18-2020> <22:33:45>      1      0.14703601      0.02371492
 <Oct18-2020> <22:33:46>      2      0.49665108      0.14663311    100.0
 <Oct18-2020> <22:33:46>      3      0.16509664      0.02718332    100.0
 <Oct18-2020> <22:33:47>      4      0.31163196      0.09151587    100.0
 <Oct18-2020> <22:33:47>      5      0.23891678      0.05893678    100.0
 <Oct18-2020> <22:33:48>      6      0.14209754      0.02453521     23.8
 <Oct18-2020> <22:33:48>      7      0.07588505      0.01644147     15.6
 <Oct18-2020> <22:33:49>      8      0.03410406      0.00798474      7.1
 <Oct18-2020> <22:33:49>      9      0.01497729      0.00307299      2.1
 <Oct18-2020> <22:33:50>     10      0.00286252      0.00048811      0.0
 <Oct18-2020> <22:33:50>     11      0.00074511      0.00016346      0.0
 <Oct18-2020> <22:33:51>     12      0.00017228      0.00003114      0.0
 <Oct18-2020> <22:33:51>     13      0.00005971      0.00001554      0.0
 <Oct18-2020> <22:33:52>     14      0.00004959      0.00001377      0.0
 <Oct18-2020> <22:33:52>     15      0.00000586      0.00000119      0.0
 <Oct18-2020> <22:33:53>     16      0.00000190      0.00000043      0.0
 <Oct18-2020> <22:33:53>  SCF converged
 <Oct18-2020> <22:33:53>     17      0.00000084      0.00000015      0.0
 <Oct18-2020> <22:33:53>  >>>> TOTEN
 <Oct18-2020> <22:33:54>  >>>> POPAN
 <Oct18-2020> <22:33:54>  >>>> DEBYE
 <Oct18-2020> <22:33:54>  >>>> ENGRAD
 <Oct18-2020> <22:33:54>  Geometry symmetry displacement    2 out of    4
  Coordinates in Geometry Cycle 27
    Atom         X           Y           Z   (Angstrom)
    1.W        -1.053534    0.168437    0.091918
    2.O        -0.956678   -0.086772    1.811692
    3.O         0.793990   -0.054008   -0.519802
    4.O        -2.541357    1.421360    0.088328
    5.O        -1.121859    1.026630   -2.226474
    6.O        -1.747620   -1.305083   -0.525412
    7.O         0.054696    2.266670    0.308174
    8.H         0.878273    2.313024   -0.219208
    9.H        -0.485907    3.029126    0.019665
   10.H        -2.748594    1.800991   -0.788625
   11.H        -1.646565    0.419073   -2.788056
   12.H        -0.204157    0.907471   -2.549356
   13.H         0.957723   -0.941082   -0.897430
 <Oct18-2020> <22:33:55>  >>>> CORORT
 <Oct18-2020> <22:33:55>  >>>> CLSMAT
 <Oct18-2020> <22:33:55>  >>>> ORTHON
 <Oct18-2020> <22:33:55>  >>>> GENPT
 <Oct18-2020> <22:33:55>  Block Length= 128
 <Oct18-2020> <22:33:55>  >>>> PTBAS
 <Oct18-2020> <22:33:55>  combining surface points...
 <Oct18-2020> <22:33:55>  combining surface points...
 <Oct18-2020> <22:33:55>  combining surface points...
 <Oct18-2020> <22:33:55>  >>>> CYCLE
 <Oct18-2020> <22:33:56>              |Error|         MaxErr       Wt(A-DIIS)
 <Oct18-2020> <22:33:56>      1      0.14760844      0.02373803
 <Oct18-2020> <22:33:57>      2      0.49593146      0.14646688    100.0
 <Oct18-2020> <22:33:57>      3      0.16534733      0.02750259    100.0
 <Oct18-2020> <22:33:58>      4      0.31430802      0.09231769    100.0
 <Oct18-2020> <22:33:58>      5      0.23425956      0.05772205    100.0
 <Oct18-2020> <22:33:59>      6      0.14416286      0.02478540     24.0
 <Oct18-2020> <22:33:59>      7      0.07508596      0.01624927     15.4
 <Oct18-2020> <22:34:00>      8      0.03413571      0.00799575      7.1
 <Oct18-2020> <22:34:00>      9      0.01488658      0.00307352      2.1
 <Oct18-2020> <22:34:01>     10      0.00286831      0.00048437      0.0
 <Oct18-2020> <22:34:01>     11      0.00074334      0.00016335      0.0
 <Oct18-2020> <22:34:02>     12      0.00017259      0.00003106      0.0
 <Oct18-2020> <22:34:02>     13      0.00006130      0.00001599      0.0
 <Oct18-2020> <22:34:03>     14      0.00004855      0.00001345      0.0
 <Oct18-2020> <22:34:03>     15      0.00000588      0.00000121      0.0
 <Oct18-2020> <22:34:04>     16      0.00000194      0.00000044      0.0
 <Oct18-2020> <22:34:04>  SCF converged
 <Oct18-2020> <22:34:04>     17      0.00000088      0.00000016      0.0
 <Oct18-2020> <22:34:04>  >>>> TOTEN
 <Oct18-2020> <22:34:05>  >>>> POPAN
 <Oct18-2020> <22:34:05>  >>>> DEBYE
 <Oct18-2020> <22:34:05>  >>>> ENGRAD
 <Oct18-2020> <22:34:05>  Old frequency:   -120.46463, new:    124.54684
 <Oct18-2020> <22:34:05>  Geometry symmetry displacement    3 out of    4
  Coordinates in Geometry Cycle 27
    Atom         X           Y           Z   (Angstrom)
    1.W        -1.053464    0.168422    0.091923
    2.O        -0.956878   -0.086671    1.811724
    3.O         0.794033   -0.054317   -0.519452
    4.O        -2.541054    1.421725    0.088172
    5.O        -1.122574    1.026126   -2.226855
    6.O        -1.747879   -1.304870   -0.525572
    7.O         0.054852    2.266592    0.308468
    8.H         0.875549    2.317219   -0.223002
    9.H        -0.488976    3.029250    0.026567
   10.H        -2.747967    1.800734   -0.789149
   11.H        -1.642719    0.414766   -2.788525
   12.H        -0.203889    0.912765   -2.548912
   13.H         0.956683   -0.940103   -0.900530
 <Oct18-2020> <22:34:06>  >>>> CORORT
 <Oct18-2020> <22:34:06>  >>>> CLSMAT
 <Oct18-2020> <22:34:06>  >>>> ORTHON
 <Oct18-2020> <22:34:06>  >>>> GENPT
 <Oct18-2020> <22:34:06>  Block Length= 128
 <Oct18-2020> <22:34:06>  >>>> PTBAS
 <Oct18-2020> <22:34:06>  combining surface points...
 <Oct18-2020> <22:34:06>  combining surface points...
 <Oct18-2020> <22:34:06>  combining surface points...
 <Oct18-2020> <22:34:06>  >>>> CYCLE
 <Oct18-2020> <22:34:07>              |Error|         MaxErr       Wt(A-DIIS)
 <Oct18-2020> <22:34:07>      1      0.14738194      0.02370678
 <Oct18-2020> <22:34:08>      2      0.49643376      0.14657960    100.0
 <Oct18-2020> <22:34:08>      3      0.16515884      0.02726894    100.0
 <Oct18-2020> <22:34:09>      4      0.31243326      0.09174562    100.0
 <Oct18-2020> <22:34:09>      5      0.23743062      0.05856829    100.0
 <Oct18-2020> <22:34:10>      6      0.14234915      0.02439789     23.6
 <Oct18-2020> <22:34:10>      7      0.07515056      0.01625065     15.4
 <Oct18-2020> <22:34:11>      8      0.03396708      0.00789553      7.0
 <Oct18-2020> <22:34:11>      9      0.01485920      0.00305081      2.1
 <Oct18-2020> <22:34:12>     10      0.00285394      0.00048636      0.0
 <Oct18-2020> <22:34:12>     11      0.00074563      0.00016376      0.0
 <Oct18-2020> <22:34:13>     12      0.00017305      0.00003103      0.0
 <Oct18-2020> <22:34:13>     13      0.00006249      0.00001635      0.0
 <Oct18-2020> <22:34:14>     14      0.00004916      0.00001360      0.0
 <Oct18-2020> <22:34:14>     15      0.00000585      0.00000121      0.0
 <Oct18-2020> <22:34:15>     16      0.00000195      0.00000044      0.0
 <Oct18-2020> <22:34:15>  SCF converged
 <Oct18-2020> <22:34:15>     17      0.00000081      0.00000015      0.0
 <Oct18-2020> <22:34:15>  >>>> TOTEN
 <Oct18-2020> <22:34:16>  >>>> POPAN
 <Oct18-2020> <22:34:16>  >>>> DEBYE
 <Oct18-2020> <22:34:16>  >>>> ENGRAD
 <Oct18-2020> <22:34:16>  Geometry symmetry displacement    4 out of    4
  Coordinates in Geometry Cycle 27
    Atom         X           Y           Z   (Angstrom)
    1.W        -1.053546    0.168450    0.091962
    2.O        -0.956671   -0.086933    1.811702
    3.O         0.794114   -0.053967   -0.519507
    4.O        -2.541344    1.421328    0.088344
    5.O        -1.122696    1.026645   -2.226602
    6.O        -1.747534   -1.304973   -0.525723
    7.O         0.054711    2.266641    0.307909
    8.H         0.881380    2.309400   -0.214975
    9.H        -0.482579    3.029359    0.013870
   10.H        -2.748833    1.799979   -0.788991
   11.H        -1.641660    0.414597   -2.788619
   12.H        -0.203616    0.914335   -2.547918
   13.H         0.957675   -0.940559   -0.898317
 <Oct18-2020> <22:34:17>  >>>> CORORT
 <Oct18-2020> <22:34:17>  >>>> CLSMAT
 <Oct18-2020> <22:34:17>  >>>> ORTHON
 <Oct18-2020> <22:34:17>  >>>> GENPT
 <Oct18-2020> <22:34:17>  Block Length= 128
 <Oct18-2020> <22:34:17>  >>>> PTBAS
 <Oct18-2020> <22:34:17>  combining surface points...
 <Oct18-2020> <22:34:17>  combining surface points...
 <Oct18-2020> <22:34:17>  combining surface points...
 <Oct18-2020> <22:34:17>  >>>> CYCLE
 <Oct18-2020> <22:34:18>              |Error|         MaxErr       Wt(A-DIIS)
 <Oct18-2020> <22:34:18>      1      0.14767281      0.02373245
 <Oct18-2020> <22:34:19>      2      0.49655384      0.14661836    100.0
 <Oct18-2020> <22:34:19>      3      0.16525150      0.02736535    100.0
 <Oct18-2020> <22:34:20>      4      0.31315323      0.09196482    100.0
 <Oct18-2020> <22:34:20>      5      0.23669111      0.05830037    100.0
 <Oct18-2020> <22:34:21>      6      0.14386629      0.02506266     24.3
 <Oct18-2020> <22:34:21>      7      0.07659765      0.01658235     15.7
 <Oct18-2020> <22:34:22>      8      0.03454740      0.00821334      7.3
 <Oct18-2020> <22:34:23>      9      0.01511853      0.00310126      2.1
 <Oct18-2020> <22:34:23>     10      0.00287547      0.00048751      0.0
 <Oct18-2020> <22:34:24>     11      0.00073958      0.00016297      0.0
 <Oct18-2020> <22:34:24>     12      0.00017156      0.00003148      0.0
 <Oct18-2020> <22:34:24>     13      0.00005618      0.00001448      0.0
 <Oct18-2020> <22:34:25>     14      0.00004906      0.00001367      0.0
 <Oct18-2020> <22:34:25>     15      0.00000586      0.00000118      0.0
 <Oct18-2020> <22:34:26>     16      0.00000182      0.00000040      0.0
 <Oct18-2020> <22:34:26>  SCF converged
 <Oct18-2020> <22:34:26>     17      0.00000096      0.00000017      0.0
 <Oct18-2020> <22:34:27>  >>>> TOTEN
 <Oct18-2020> <22:34:27>  >>>> POPAN
 <Oct18-2020> <22:34:27>  >>>> DEBYE
 <Oct18-2020> <22:34:27>  >>>> ENGRAD
 <Oct18-2020> <22:34:28>  Old frequency:    -73.29078, new:   -126.36993
 <Oct18-2020> <22:34:28>  NOTE: Some frequencies have been re-calculated by numerical differentiation
 <Oct18-2020> <22:34:28>        Check the text output file for new values!
 <Oct18-2020> <22:34:28>  NORMAL TERMINATION
 <Oct18-2020> <22:34:28>  END
