
 *******************************************************************************
 *                                                                             *
 *  -------------------------------------                                      *
 *   Amsterdam Density Functional  (ADF)         2019                          *
 *  -------------------------------------                                      *
 *                                               r79301 2019-11-09             *
 *                                                                             *
 *                                                                             *
 *                            =====================                            *
 *                            |                   |                            *
 *                            |     D I R A C     |                            *
 *                            |                   |                            *
 *                            =====================                            *
 *                                                                             *
 *                                                                             *
 *   Online information and documentation:  https://www.scm.com/support/       *
 *   E-mail:  support@scm.com   info@scm.com                                   *
 *                                                                             *
 *   Scientific publications using ADF results must be properly referenced     *
 *   See the User Manuals (or the web site) for recommended citations          *
 *   The terms and conditions of the End User License Agreement apply to       *
 *   the use of ADF, https://www.scm.com/license-terms/                        *
 *                                                                             *
 **********************  x86_64_linux_intel / intelmpi  ************************
 
 
 
  
 DIRAC 2019  RunTime: Sep07-2020 17:02:22  Nodes: 1  Procs: 1

 Temporary files are created in /scratch/kid_0.1829669893 (0x58465342)

1
 HYDROGEN ATOM RELATIVISTIC, Point Nuc, A and c from libtc   
 N J RN H ZN XION ANUC CLIGHT
 5000    1100.00000000197.36710137  1.00000000  0.00000000    1.007825  0.1370360E+03
  PH   PHI     EPS        DEL        DELRVR
  0.30  0.30     2500.00  0.00001000  0.00001000
 IDIRC  NC1  NDEBU NPRIN  IPUN IRCOR IWCOR
   1   300     0     0     0     0     0
   XALPHA      XLATTER      RNUC
  0.70000000  0.00000000  0.00000000 Point Charge
   XN   XL   XJ      XE          XZ      XDELL
  1.0  0.0  0.5      -1.000       1.000     0.00000
 ICORP=  0  NPCL=  0  DEMP=0.00  PEPS=0.000000
 R(1)=  0.1000000E-08 D=  0.1005080E+01 RNUC=  0.0000000E+00
 converged at cycle   32  DENSITY AVERAGING    0.2400
  MAXIMUM ERROR IN R.V(R) IS   0.79874357E-05
 Q,EY,EV,EZ,ESUM,ETOT,RHO  0.100000E+01 -0.266614E+00 -0.619969E+00 -0.910779E+00 -0.203940E+00 -0.415998E+00  0.337036E-17


 DIRAC CALCULATION
1                    HYDROGEN ATOM RELATIVISTIC, Point Nuc, A and c from libtc


 EXCHANGE COEFFICIENT=  0.7000000           TAIL CORRECTION=  0.           NUCLEAR RADIUS=  0.000E+00
0                       ORBITAL    N    L    J     ELECTRONS     EIGENVALUE                DELTA OF EIGENV.

                          1S1/2  1.0  0.0  0.5     1.000       -0.2039397E+00                 0.2720093E-06


                                        NUCLEAR CHARGE=    1.000000
                            INTEGRAL OF CHARGE DENSITY=    1.000000
                           SUM OF THE ORBITAL ENERGIES=     -0.2039
                                          TOTAL ENERGY=     -0.4160
                                        KINETIC ENERGY=      0.4160
                             NUCLEAR ATTRACTION ENERGY=     -0.9108
                             ELECTRON REPULSION ENERGY=      0.2787
                                       EXCHANGE ENERGY=     -0.2000

 *******************************************************************************

                             D I R A C   E X I T
 NORMAL TERMINATION



 =================
 Timing Statistics
 =================
  
 Total Used :                     CPU=        0.06      System=        0.00     Elapsed=        0.07

 Calls  Section                     ( Mean, Percentage )
 ---------------------------------------------------------------------------------------------------
     2  ><      ................      0.00    0.00             0.00    0.00             0.00    0.01
     1  EXIT PROCEDURE .........      0.06  100.00             0.00  100.00             0.07   99.99


 Currently Open Files (EXIT00)
 ====================

 Unit    Access Format  Status   Type       Ident (file)
 -------------------------------------------------------
   3      SEQ    FORM   TRANSP  NORMAL      LOGFILE
                                          ( logfile )
 
Create H   file=TZP-H
XC
  GGA PBE
End
relativistic ZORA
Corepotentials t12.rel
End

 *******************************************************************************
 *                                                                             *
 *  -------------------------------------                                      *
 *   Amsterdam Density Functional  (ADF)         2019                          *
 *  -------------------------------------                                      *
 *                                               r79301 2019-11-09             *
 *                                                                             *
 *                                                                             *
 *                              =================                              *
 *                              |               |                              *
 *                              |     A D F     |                              *
 *                              |               |                              *
 *                              =================                              *
 *                                                                             *
 *                                                                             *
 *   Online information and documentation:  https://www.scm.com/support/       *
 *   E-mail:  support@scm.com   info@scm.com                                   *
 *                                                                             *
 *   Scientific publications using ADF results must be properly referenced     *
 *   See the User Manuals (or the web site) for recommended citations          *
 *   The terms and conditions of the End User License Agreement apply to       *
 *   the use of ADF, https://www.scm.com/license-terms/                        *
 *                                                                             *
 **********************  x86_64_linux_intel / intelmpi  ************************
 
 
 
  
 ADF 2019  RunTime: Sep07-2020 17:02:22  Nodes: 1  Procs: 1

 Temporary files are created in /scratch/kid_0.1614295773 (0x58465342)

 Hydrogen (TZP)



 ===========================
 A T T A C H E D   F I L E S
 ===========================
  
 CREATE - Data File:    TZP-H
                        Hydrogen (TZP)
 Core Potentials:
         file : t12.rel



 ===============================
 M O D E L   P A R A M E T E R S
 ===============================
  
 DENSITY FUNCTIONAL POTENTIAL (scf)
    LDA:                               PW92                                    == Not Default ==
    Gradient Corrections:              PBEc PBEx                               == Not Default ==

 SPIN  (restricted / unrestr.)
    Molecule:                          Restricted                               

 OTHER ASPECTS
    Relativistic Corrections:          scalar (ZORA,MAPA)                      == Not Default ==

    Nuclear Charge Density Model:      Point Charge Nuclei                      
    Core Treatment:                    Frozen Orbital(s)                        

    Hyperfine or Zeeman Interaction:   ---                                      



 =====================================
 S Y M M E T R Y ,   E L E C T R O N S
 =====================================
  
 Symmetry: ATOM

 Irreducible Representations, including subspecies
 -------------------------------------------------
 S
 P:x  P:y  P:z
 D:z2  D:x2-y2  D:xy  D:xz  D:yz
 F:z3  F:z  F:xyz  F:z2x  F:z2y  F:x  F:y


 Configuration of Valence Electrons
 ==================================

          Occupation Numbers
          -------------------------------------------------
 S        1
 P        0
 D        0
 F        0
          -------------------------------------------------

 Total:   1

 Net Charge: 0 (Nuclei minus Electrons)

 Preset values for MO occupations will be applied through SCF cycle no. 1000000
 Thereafter, the program will assign electrons to MOs that are spatially
 similar to the occupied MOs in a "reference" cycle ("KeepOrbitals").
 The reference cycle is always the PREVIOUS cycle: it will evolve with
 the SCF procedure.



 ================================
 (Slater-type)  F U N C T I O N S  ***  (Basis and Fit)  ***
 ================================
  

 Atom Type    1  (H)
 ==============

 Valence Basis Sets:   4
 -----------------------
   1 S    0.690000
   1 S    0.920000
   1 S    1.580000
   2 P    1.250000


 BAS: List of all Elementary Cartesian Basis Functions
 =====================================================

 The numbering in the list below (to the right of the function characteristics) is referred
 to in print-outs of MO eigenvectors and Mulliken populations in the BAS representation
 (as contrasted to the SFO representation).

 Notes:
 1. The functions are characterized by a polynomial prefactor (powers of x,y,z and r) and
    an exponential decay factor alpha.
 2. Since the basis sets are specific for an atom TYPE, the individual functions occur on
    all atoms of that type.
 3. The word 'Core' in the left margin signals that it is a Core Function (CF) : not a
    degree of freedom in the valence set, but only used to ensure orthogonalization of
    the other valence basis functions on the frozen Core Orbitals.


 (power of) X  Y  Z  R     Alpha  on Atom
            ==========     =====     ==========

 H                                    1
                                  ---------------------------------------------------------------------------
            0  0  0  0     0.690      1
            0  0  0  0     0.920      2
            0  0  0  0     1.580      3
            1  0  0  0     1.250      4
            0  1  0  0     1.250      5
            0  0  1  0     1.250      6

 Total number of charge fitting functions (nprimf)        50
 Total number of Cartesian basis functions (naos)          6
 Total number of Cartesian core functions  (ncos)          0



 BAS: List of all Elementary Cartesian Basis Functions
 =====================================================

 The numbering in the list below (to the right of the function characteristics) is referred
 to in print-outs of MO eigenvectors and Mulliken populations in the BAS representation
 (as contrasted to the SFO representation).

 Notes:
 1. The functions are characterized by a polynomial prefactor (powers of x,y,z and r) and
    an exponential decay factor alpha.
 2. Since the basis sets are specific for an atom TYPE, the individual functions occur on
    all atoms of that type.
 3. The word 'Core' in the left margin signals that it is a Core Function (CF) : not a
    degree of freedom in the valence set, but only used to ensure orthogonalization of
    the other valence basis functions on the frozen Core Orbitals.


 (power of) X  Y  Z  R     Alpha  on Atom
            ==========     =====     ==========

 H                                    1
                                  ---------------------------------------------------------------------------
            0  0  0  0     0.690      1
            0  0  0  0     0.920      2
            0  0  0  0     1.580      3
            1  0  0  0     1.250      4
            0  1  0  0     1.250      5
            0  0  1  0     1.250      6
1
 ***************************************************************************************************



                                              ***********************
                                              *  T E C H N I C A L  *
                                              ***********************
  



 =============================================================
 P A R A L L E L I Z A T I O N  and  V E C T O R I Z A T I O N
 =============================================================
  
 Nr of parallel processes:                                1
 Maximum vector length in NumInt loops:                 128



 =====================
 S C F   U P D A T E S
 =====================
  
 Max. nr. of cycles:                               300
 Convergence criterion:                              0.0000000100
   secondary criterion:                              0.0000000100

 Mix parameter (when DIIS does not apply):           0.2000000000
 Special mix parameter for the first cycle:          1.0000000000
 Mixed ADIIS+SDIIS will be used                  
    Max number of expansion vectors:                10
    Pure ADIIS when Max([F,P]) is above              0.1000000000
    Pure SDIIS when Max([F,P]) is below              0.0010000000
 Automatic ElectronSmearing (in case of problematic SCF convergence) disabled



 =================
 P R E C I S I O N  ***  (General: NumInt, NeglectFunctionTails, ...)  ***
 =================
  

 NumInt:           Target precision:                12.0000000000
 -------           Initial precision:               10.0000000000
                   Min. precision (optimization):   10.0000000000

 Neglect Functions:          Basis functions:        0.1000000000E-13
 ------------------          Fit functions:          0.1000000000E-13



 ===========================
 L I N E A R   S C A L I N G
 ===========================
  

 Cut-off radii density fit:                        0.1000000000E-97
 Overlap cut-off criterion AO matrix elements:     0.1000000000E-97
 Cut-offs for Coulomb potential and fitted density:0.1000000000E-97
 Cut-off criterion for Coulomb multipole terms:    0.1000000000E-97
 Progressive Convergence parameter:                 0.000000000    
1
 ***************************************************************************************************



                                            ***************************
                                            *  C O M P U T A T I O N  *
                                            ***************************
  

 Number of elements of the density matrix on this node (used, total):        21        21



 ===========================================
 Numerical Integration : Fuzzy Cells (Becke)
 ===========================================
  
 Becke grid quality: VERYGOOD       
  
 Lebedev angular grid order:             min:  13 max:  41
 Nr. of radial points:                   min:  64 max:  64

 Total nr. of points:         64
 Nr. of blocks:                1
 Block length:                64
 Nr. of dummy points:          0


 Test of Precision of the Numerical Integration Grid
 ===================================================

 Integral of the Total Core Density:                   0.00000000000000



 ========================
 Density Fitting (zlmFit)
 ========================
  
 ZlmFit Fit Quality: VERYGOOD       
  
 Max L-expansion:                        min:   0 max:   0
 Nr. of radial interpolation points:     min: 120 max: 120



 =====
 S C F  ***  ScaSCF  ***
 =====
  

 CYCLE    1
 SCF Error: norm([F,P])=      0.000000000000, max([F,P])=      0.000000000000
 orbitals (Q,E):
 ---------------
 S :1...3            ( 1.00    -0.5000)  ( 0.00    -0.0900)  ( 0.00     1.2936)
 P :1...1            ( 0.00     0.1562)

 CYCLE    2
 SCF Error: norm([F,P])=      0.031537872292, max([F,P])=      0.030110494752
 orbitals (Q,E):
 ---------------
 S :1...2            ( 1.00    -0.2218)  ( 0.00     0.1019)
 P :1...1            ( 0.00     0.4189)

 CYCLE    3
  SDIIS (wt  0.000):  0.1996  0.8004
 A-DIIS (wt  1.000):  0.0000  1.0000
  DIIS coefficients:  0.0000  1.0000
 SCF Error: norm([F,P])=      0.008617989401, max([F,P])=      0.008343029399
 orbitals (Q,E):
 ---------------
 S :1...2            ( 1.00    -0.2422)  ( 0.00     0.0889)
 P :1...1            ( 0.00     0.4024)

 CYCLE    4
  SDIIS (wt  0.993):  0.1666  0.8334
 A-DIIS (wt  0.007):  0.0000  1.0000
  DIIS coefficients:  0.1654  0.8346
 SCF Error: norm([F,P])=      0.001732350026, max([F,P])=      0.001718616814
 orbitals (Q,E):
 ---------------
 S :1...2            ( 1.00    -0.2385)  ( 0.00     0.0908)
 P :1...1            ( 0.00     0.4054)

 CYCLE    5
  SDIIS (wt  1.000):  0.0236  0.9764
  DIIS coefficients:  0.0236  0.9764
 SCF Error: norm([F,P])=      0.000043673449, max([F,P])=      0.000039769875
 orbitals (Q,E):
 ---------------
 S :1...2            ( 1.00    -0.2386)  ( 0.00     0.0908)
 P :1...1            ( 0.00     0.4054)

 CYCLE    6
  SDIIS (wt  1.000): -0.0577  1.0577
  DIIS coefficients: -0.0577  1.0577
 SCF Error: norm([F,P])=      0.000002383805, max([F,P])=      0.000002158128
 orbitals (Q,E):
 ---------------
 S :1...2            ( 1.00    -0.2386)  ( 0.00     0.0908)
 P :1...1            ( 0.00     0.4054)

 CYCLE    7
  SDIIS (wt  1.000): -0.0032  1.0032
  DIIS coefficients: -0.0032  1.0032
 SCF Error: norm([F,P])=      0.000000007721, max([F,P])=      0.000000007228
 orbitals (Q,E):
 ---------------
 S :1...2            ( 1.00    -0.2386)  ( 0.00     0.0908)
 P :1...1            ( 0.00     0.4054)

 SCF CONVERGED

 CYCLE    8
1
 ***************************************************************************************************



                                                *******************
                                                *  R E S U L T S  *
                                                *******************
  
 *** Using FIT density in Focky
  SDIIS (wt  1.000):  0.0192  0.9808
  DIIS coefficients:  0.0192  0.9808
 SCF Error: norm([F,P])=      0.000000000151, max([F,P])=      0.000000000141

 Scaled ZORA Orbital Energies, per Irrep and Spin:
 =================================================
                        Occup              E (au)              E (eV)       Diff (eV) with prev. cycle
                        -----      --------------------        ------       --------------------------
 S
               1        1.000     -0.23861775226993E+00        -6.493               7.43E-09
               2        0.000      0.90791701709251E-01         2.471
               3        0.000      0.15217530108908E+01        41.409
 P
               1        0.000      0.40537978060393E+00        11.031


 Partially Occupied:
               1 S                -0.23861775226993E+00
  
 LUMO :        2 S                 0.90791701709251E-01
  


 Orbital Energies, all Irreps
 ========================================

 Irrep        no.  (spin)   Occup              E (au)                E (eV)
 ---------------------------------------------------------------------------
 S             1             1.00       -0.23861775226993E+00        -6.4931
 S             2             0.00        0.90791701709251E-01         2.4706
 P             1             0.00        0.40537978060393E+00        11.0309
 S             3             0.00        0.15217530108908E+01        41.4090


 All Electron Calculation, thus no Orbital Energies of the Core Orbitals are calculated



 =======================================
 M U L L I K E N   P O P U L A T I O N S
 =======================================
  
 The survey below gives for each atom:
 a) the total charge (Z minus electrons)
 b) the net spin polarization (nr of electrons spin-A minus spin-B)
 c) for each spin the atomic electron valence density (integrated) per L-value.

 Atom              Charge    Spin density          S         P         D         F
 ----              ------    ------------       ------    ------    ------    ------
 1 H              -0.0000                       1.0000    0.0000    0.0000    0.0000

 Populations of individual BAS functions
 ----------------------------------------
 1 H            0.2104  0.6788  0.1107  0.0000  0.0000  0.0000

 Gross Charges per Atom (Z minus electrons)
 ==========================================
            -0.0000
 Net Total: -0.00000000



 =======================================================================
 Electrostatic potential at the Nuclei due to electrons and other nuclei
 =======================================================================
  
         Atom                  Potential
         ----                  ---------
     1)   H                   0.94468022
 
 
 ========================
 No memory problems found
 ========================
 
 Maximum number of active allocate calls:         306
 
 *******************************************************************************

                             A D F   E X I T
 NORMAL TERMINATION



 =================
 Timing Statistics
 =================
  
 Total Used :                     CPU=        0.35      System=        0.01     Elapsed=        0.40

 Calls  Section                     ( Mean, Percentage )
 ---------------------------------------------------------------------------------------------------
     3  ><      ................      0.00    0.00             0.00   33.34             0.00    1.14
     1  INIT    ................      0.07   20.45             0.00    0.00             0.08   20.71
     1  GEOMET  ................      0.02    5.68             0.00    0.00             0.02    6.08
     1  INPUTA  ................      0.00    1.14             0.00    0.00             0.00    0.87
     1  MAINSY  ................      0.01    2.27             0.00    0.00             0.01    3.27
     1  SYMFIT  ................      0.00    0.00             0.00   33.33             0.00    0.45
     1  CORORT  ................      0.00    0.00             0.00    0.00             0.00    0.32
     1  SYMORB  ................      0.00    0.00             0.00    0.00             0.00    0.19
     1  CLSMAT  ................      0.00    1.14             0.00    0.00             0.01    1.35
     1  ORTHON  ................      0.00    1.14             0.00    0.00             0.00    1.23
     1  GENPT   ................      0.01    3.41             0.00    0.00             0.01    3.21
     1  PTBAS   ................      0.00    1.14             0.00    0.00             0.01    1.34
     8  FOCKY   ................      0.02   47.73             0.00   33.33             0.02   44.24
     8  FOCKTR  ................      0.00    1.14             0.00    0.00             0.00    1.22
     8  SDIIS   ................      0.00    5.68             0.00    0.00             0.00    5.61
     1  COREPS  ................      0.01    3.41             0.00    0.00             0.01    3.63
     1  POPAN   ................      0.00    1.14             0.00    0.00             0.00    1.20
     1  DEBYE   ................      0.00    0.00             0.00    0.00             0.00    0.47
     1  EXIT PROCEDURE .........      0.02    4.55             0.00    0.00             0.01    3.46


 Currently Open Files (EXIT00)
 ====================

 Unit    Access Format  Status   Type       Ident (file)
 -------------------------------------------------------
   3      SEQ    FORM   TRANSP  NORMAL      LOGFILE
                                          ( logfile )

 ***************************************************************************************************
 (LOGFILE)
 <Sep07-2020> <17:02:22>  DIRAC 2019  RunTime: Sep07-2020 17:02:22  Nodes: 1  Procs: 1
 <Sep07-2020> <17:02:22>  NORMAL TERMINATION
 <Sep07-2020> <17:02:22>  END
 <Sep07-2020> <17:02:22>  ADF 2019  RunTime: Sep07-2020 17:02:22  Nodes: 1  Procs: 1
 <Sep07-2020> <17:02:22>  Hydrogen (TZP)
 <Sep07-2020> <17:02:22>  RunType   : CREATE
 <Sep07-2020> <17:02:22>  Net Charge: 0 (Nuclei minus Electrons)
 <Sep07-2020> <17:02:22>  Symmetry  : ATOM
  Coordinates
    Atom         X           Y           Z   (Angstrom)
    1.H         0.000000    0.000000    0.000000
 <Sep07-2020> <17:02:22>  >>>> CORORT
 <Sep07-2020> <17:02:22>  >>>> CLSMAT
 <Sep07-2020> <17:02:22>  >>>> ORTHON
 <Sep07-2020> <17:02:22>  >>>> GENPT
 <Sep07-2020> <17:02:22>  Block Length=  64
 <Sep07-2020> <17:02:22>  >>>> PTBAS
 <Sep07-2020> <17:02:22>  >>>> CYCLE
 <Sep07-2020> <17:02:23>              |Error|         MaxErr       Wt(A-DIIS)
 <Sep07-2020> <17:02:23>      1      0.00000000      0.00000000
 <Sep07-2020> <17:02:23>      2      0.03153787      0.03011049
 <Sep07-2020> <17:02:23>      3      0.00861799      0.00834303    100.0
 <Sep07-2020> <17:02:23>      4      0.00173235      0.00171862      0.7
 <Sep07-2020> <17:02:23>      5      0.00004367      0.00003977      0.0
 <Sep07-2020> <17:02:23>      6      0.00000238      0.00000216      0.0
 <Sep07-2020> <17:02:23>      7      0.00000001      0.00000001      0.0
 <Sep07-2020> <17:02:23>  SCF converged
 <Sep07-2020> <17:02:23>      8      0.00000000      0.00000000      0.0
 <Sep07-2020> <17:02:23>  >>>> POPAN
 <Sep07-2020> <17:02:23>  >>>> DEBYE
 <Sep07-2020> <17:02:23>  NORMAL TERMINATION
 <Sep07-2020> <17:02:23>  END

 *******************************************************************************
 *                                                                             *
 *  -------------------------------------                                      *
 *   Amsterdam Density Functional  (ADF)         2019                          *
 *  -------------------------------------                                      *
 *                                               r79301 2019-11-09             *
 *                                                                             *
 *                                                                             *
 *                            =====================                            *
 *                            |                   |                            *
 *                            |     D I R A C     |                            *
 *                            |                   |                            *
 *                            =====================                            *
 *                                                                             *
 *                                                                             *
 *   Online information and documentation:  https://www.scm.com/support/       *
 *   E-mail:  support@scm.com   info@scm.com                                   *
 *                                                                             *
 *   Scientific publications using ADF results must be properly referenced     *
 *   See the User Manuals (or the web site) for recommended citations          *
 *   The terms and conditions of the End User License Agreement apply to       *
 *   the use of ADF, https://www.scm.com/license-terms/                        *
 *                                                                             *
 **********************  x86_64_linux_intel / intelmpi  ************************
 
 
 
  
 DIRAC 2019  RunTime: Sep07-2020 17:02:23  Nodes: 1  Procs: 1

 Temporary files are created in /scratch/kid_0.1176663629 (0x58465342)

1
 OXYGEN ATOM 1s CORE RELATIVISTIC, Point Nuc, A and c from li
 N J RN H ZN XION ANUC CLIGHT
 5000    4100.00000000197.36710137  8.00000000  0.00000000   15.994914  0.1370360E+03
  PH   PHI     EPS        DEL        DELRVR
  0.30  0.30     2500.00  0.00001000  0.00001000
 IDIRC  NC1  NDEBU NPRIN  IPUN IRCOR IWCOR
   1   300     0     0     0     0     1
   XALPHA      XLATTER      RNUC
  0.70000000  0.00000000  0.00000000 Point Charge
   XN   XL   XJ      XE          XZ      XDELL
  1.0  0.0  0.5      -5.000       2.000     0.00000
  2.0  0.0  0.5      -1.000       2.000     0.00000
  2.0  1.0  0.5      -1.000       2.000     0.00000
  2.0  1.0  1.5      -1.000       2.000     0.00000
 ICORP=  0  NPCL=  0  DEMP=0.00  PEPS=0.000000
 R(1)=  0.1000000E-08 D=  0.1005080E+01 RNUC=  0.0000000E+00
 converged at cycle   28  DENSITY AVERAGING    0.2400
  MAXIMUM ERROR IN R.V(R) IS   0.81125670E-05
 Q,EY,EV,EZ,ESUM,ETOT,RHO  0.800000E+01 -0.101247E+02 -0.114961E+03 -0.177573E+03 -0.405053E+02 -0.743427E+02  0.414766E-14


 DIRAC CALCULATION
1                    OXYGEN ATOM 1s CORE RELATIVISTIC, Point Nuc, A and c from libtc


 EXCHANGE COEFFICIENT=  0.7000000           TAIL CORRECTION=  0.           NUCLEAR RADIUS=  0.000E+00
0                       ORBITAL    N    L    J     ELECTRONS     EIGENVALUE                DELTA OF EIGENV.

                          1S1/2  1.0  0.0  0.5     2.000       -0.1880014E+02                 0.7264358E-06
                          2S1/2  2.0  0.0  0.5     2.000       -0.8412236E+00                 0.5932752E-05
                          2P1/2  2.0  1.0  0.5     2.000       -0.3063203E+00                 0.5998471E-05
                          2P3/2  2.0  1.0  1.5     2.000       -0.3049609E+00                 0.5986971E-05


                                        NUCLEAR CHARGE=    8.000000
                            INTEGRAL OF CHARGE DENSITY=    8.000000
                           SUM OF THE ORBITAL ENERGIES=    -40.5053
                                          TOTAL ENERGY=    -74.3427
                                        KINETIC ENERGY=     74.4552
                             NUCLEAR ATTRACTION ENERGY=   -177.5730
                             ELECTRON REPULSION ENERGY=     36.3686
                                       EXCHANGE ENERGY=     -7.5935

 *******************************************************************************

                             D I R A C   E X I T
 NORMAL TERMINATION



 =================
 Timing Statistics
 =================
  
 Total Used :                     CPU=        0.11      System=        0.00     Elapsed=        0.12

 Calls  Section                     ( Mean, Percentage )
 ---------------------------------------------------------------------------------------------------
     2  ><      ................      0.00    0.00             0.00    0.00             0.00    0.01
     1  EXIT PROCEDURE .........      0.11  100.00             0.00    0.00             0.12   99.99


 Currently Open Files (EXIT00)
 ====================

 Unit    Access Format  Status   Type       Ident (file)
 -------------------------------------------------------
   3      SEQ    FORM   TRANSP  NORMAL      LOGFILE
                                          ( logfile )
 
Create O   file=TZP-O.1s
XC
  GGA PBE
End
relativistic ZORA
Corepotentials t12.rel
End

 *******************************************************************************
 *                                                                             *
 *  -------------------------------------                                      *
 *   Amsterdam Density Functional  (ADF)         2019                          *
 *  -------------------------------------                                      *
 *                                               r79301 2019-11-09             *
 *                                                                             *
 *                                                                             *
 *                              =================                              *
 *                              |               |                              *
 *                              |     A D F     |                              *
 *                              |               |                              *
 *                              =================                              *
 *                                                                             *
 *                                                                             *
 *   Online information and documentation:  https://www.scm.com/support/       *
 *   E-mail:  support@scm.com   info@scm.com                                   *
 *                                                                             *
 *   Scientific publications using ADF results must be properly referenced     *
 *   See the User Manuals (or the web site) for recommended citations          *
 *   The terms and conditions of the End User License Agreement apply to       *
 *   the use of ADF, https://www.scm.com/license-terms/                        *
 *                                                                             *
 **********************  x86_64_linux_intel / intelmpi  ************************
 
 
 
  
 ADF 2019  RunTime: Sep07-2020 17:02:23  Nodes: 1  Procs: 1

 Temporary files are created in /scratch/kid_0.113061755 (0x58465342)

 Oxygen (TZP, 1s frozen)



 ===========================
 A T T A C H E D   F I L E S
 ===========================
  
 CREATE - Data File:    TZP-O.1s
                        Oxygen (TZP, 1s frozen)
 Core Potentials:
         file : t12.rel



 ===============================
 M O D E L   P A R A M E T E R S
 ===============================
  
 DENSITY FUNCTIONAL POTENTIAL (scf)
    LDA:                               PW92                                    == Not Default ==
    Gradient Corrections:              PBEc PBEx                               == Not Default ==

 SPIN  (restricted / unrestr.)
    Molecule:                          Restricted                               

 OTHER ASPECTS
    Relativistic Corrections:          scalar (ZORA,MAPA)                      == Not Default ==

    Nuclear Charge Density Model:      Point Charge Nuclei                      
    Core Treatment:                    Frozen Orbital(s)                        

    Hyperfine or Zeeman Interaction:   ---                                      



 =====================================
 S Y M M E T R Y ,   E L E C T R O N S
 =====================================
  
 Symmetry: ATOM

 Irreducible Representations, including subspecies
 -------------------------------------------------
 S
 P:x  P:y  P:z
 D:z2  D:x2-y2  D:xy  D:xz  D:yz
 F:z3  F:z  F:xyz  F:z2x  F:z2y  F:x  F:y


 Configuration of Valence Electrons
 ==================================

          Occupation Numbers
          -------------------------------------------------
 S        2
 P        4
 D        0
 F        0
          -------------------------------------------------

 Total:   6

 Net Charge: 0 (Nuclei minus Electrons)

 Preset values for MO occupations will be applied through SCF cycle no. 1000000
 Thereafter, the program will assign electrons to MOs that are spatially
 similar to the occupied MOs in a "reference" cycle ("KeepOrbitals").
 The reference cycle is always the PREVIOUS cycle: it will evolve with
 the SCF procedure.



 ================================
 (Slater-type)  F U N C T I O N S  ***  (Basis and Fit)  ***
 ================================
  

 Atom Type    1  (O)
 ==============

 Valence Basis Sets:   8
 -----------------------
   1 S    7.360000
   2 S    1.720000
   2 S    2.880000
   2 S    7.580000
   2 P    1.120000
   2 P    2.080000
   2 P    4.080000
   3 D    2.000000

 Frozen Core Shells
 ------------------
    S:  1


 BAS: List of all Elementary Cartesian Basis Functions
 =====================================================

 The numbering in the list below (to the right of the function characteristics) is referred
 to in print-outs of MO eigenvectors and Mulliken populations in the BAS representation
 (as contrasted to the SFO representation).

 Notes:
 1. The functions are characterized by a polynomial prefactor (powers of x,y,z and r) and
    an exponential decay factor alpha.
 2. Since the basis sets are specific for an atom TYPE, the individual functions occur on
    all atoms of that type.
 3. The word 'Core' in the left margin signals that it is a Core Function (CF) : not a
    degree of freedom in the valence set, but only used to ensure orthogonalization of
    the other valence basis functions on the frozen Core Orbitals.


 (power of) X  Y  Z  R     Alpha  on Atom
            ==========     =====     ==========

 O                                    1
                                  ---------------------------------------------------------------------------
    Core    0  0  0  0     7.360      1
            0  0  0  1     1.720      2
            0  0  0  1     2.880      3
            0  0  0  1     7.580      4
            1  0  0  0     1.120      5
            0  1  0  0     1.120      6
            0  0  1  0     1.120      7
            1  0  0  0     2.080      8
            0  1  0  0     2.080      9
            0  0  1  0     2.080     10
            1  0  0  0     4.080     11
            0  1  0  0     4.080     12
            0  0  1  0     4.080     13
            2  0  0  0     2.000     14
            1  1  0  0     2.000     15
            1  0  1  0     2.000     16
            0  2  0  0     2.000     17
            0  1  1  0     2.000     18
            0  0  2  0     2.000     19

 Total number of charge fitting functions (nprimf)        82
 Total number of Cartesian basis functions (naos)         19
 Total number of Cartesian core functions  (ncos)          1



 BAS: List of all Elementary Cartesian Basis Functions
 =====================================================

 The numbering in the list below (to the right of the function characteristics) is referred
 to in print-outs of MO eigenvectors and Mulliken populations in the BAS representation
 (as contrasted to the SFO representation).

 Notes:
 1. The functions are characterized by a polynomial prefactor (powers of x,y,z and r) and
    an exponential decay factor alpha.
 2. Since the basis sets are specific for an atom TYPE, the individual functions occur on
    all atoms of that type.
 3. The word 'Core' in the left margin signals that it is a Core Function (CF) : not a
    degree of freedom in the valence set, but only used to ensure orthogonalization of
    the other valence basis functions on the frozen Core Orbitals.


 (power of) X  Y  Z  R     Alpha  on Atom
            ==========     =====     ==========

 O                                    1
                                  ---------------------------------------------------------------------------
    Core    0  0  0  0     7.360      1
            0  0  0  1     1.720      2
            0  0  0  1     2.880      3
            0  0  0  1     7.580      4
            1  0  0  0     1.120      5
            0  1  0  0     1.120      6
            0  0  1  0     1.120      7
            1  0  0  0     2.080      8
            0  1  0  0     2.080      9
            0  0  1  0     2.080     10
            1  0  0  0     4.080     11
            0  1  0  0     4.080     12
            0  0  1  0     4.080     13
            2  0  0  0     2.000     14
            1  1  0  0     2.000     15
            1  0  1  0     2.000     16
            0  2  0  0     2.000     17
            0  1  1  0     2.000     18
            0  0  2  0     2.000     19
1
 ***************************************************************************************************



                                              ***********************
                                              *  T E C H N I C A L  *
                                              ***********************
  



 =============================================================
 P A R A L L E L I Z A T I O N  and  V E C T O R I Z A T I O N
 =============================================================
  
 Nr of parallel processes:                                1
 Maximum vector length in NumInt loops:                 128



 =====================
 S C F   U P D A T E S
 =====================
  
 Max. nr. of cycles:                               300
 Convergence criterion:                              0.0000000100
   secondary criterion:                              0.0000000100

 Mix parameter (when DIIS does not apply):           0.2000000000
 Special mix parameter for the first cycle:          1.0000000000
 Mixed ADIIS+SDIIS will be used                  
    Max number of expansion vectors:                10
    Pure ADIIS when Max([F,P]) is above              0.1000000000
    Pure SDIIS when Max([F,P]) is below              0.0010000000
 Automatic ElectronSmearing (in case of problematic SCF convergence) disabled



 =================
 P R E C I S I O N  ***  (General: NumInt, NeglectFunctionTails, ...)  ***
 =================
  

 NumInt:           Target precision:                12.0000000000
 -------           Initial precision:               10.0000000000
                   Min. precision (optimization):   10.0000000000

 Neglect Functions:          Basis functions:        0.1000000000E-13
 ------------------          Fit functions:          0.1000000000E-13



 ===========================
 L I N E A R   S C A L I N G
 ===========================
  

 Cut-off radii density fit:                        0.1000000000E-97
 Overlap cut-off criterion AO matrix elements:     0.1000000000E-97
 Cut-offs for Coulomb potential and fitted density:0.1000000000E-97
 Cut-off criterion for Coulomb multipole terms:    0.1000000000E-97
 Progressive Convergence parameter:                 0.000000000    
1
 ***************************************************************************************************



                                            ***************************
                                            *  C O M P U T A T I O N  *
                                            ***************************
  

 Number of elements of the density matrix on this node (used, total):       190       190



 ===========================================
 Numerical Integration : Fuzzy Cells (Becke)
 ===========================================
  
 Becke grid quality: VERYGOOD       
  
 Lebedev angular grid order:             min:  13 max:  41
 Nr. of radial points:                   min:  68 max:  68

 Total nr. of points:         68
 Nr. of blocks:                1
 Block length:                68
 Nr. of dummy points:          0


 Test of Precision of the Numerical Integration Grid
 ===================================================

 Integral of the Total Core Density:                   1.99999999865610
 Relative Error:                                      -6.720E-10



 ========================
 Density Fitting (zlmFit)
 ========================
  
 ZlmFit Fit Quality: VERYGOOD       
  
 Max L-expansion:                        min:   0 max:   0
 Nr. of radial interpolation points:     min: 140 max: 140



 =====
 S C F  ***  ScaSCF  ***
 =====
  

 CYCLE    1
 SCF Error: norm([F,P])=      0.000000000000, max([F,P])=      0.000000000000
 orbitals (Q,E):
 ---------------
 S :1...3            ( 2.00    -5.3654)  ( 0.00    -2.2073)  ( 0.00    23.6692)
 P :1...3            ( 4.00    -5.0045)  ( 0.00    -2.0150)  ( 0.00    -0.3846)
 D :1...1            ( 0.00    -2.0410)

 CYCLE    2
 SCF Error: norm([F,P])=      4.562993374873, max([F,P])=      2.528971113813
 orbitals (Q,E):
 ---------------
 S :1...2            ( 2.00    -0.1548)  ( 0.00     1.6948)
 P :1...2            ( 4.00     0.1773)  ( 0.00     0.9552)
 D :1...1            ( 0.00     1.4649)

 CYCLE    3
  SDIIS (wt  0.000):  0.3378  0.6622
 A-DIIS (wt  1.000):  0.4814  0.5186
  DIIS coefficients:  0.4814  0.5186
 SCF Error: norm([F,P])=      2.723155250500, max([F,P])=      1.798667049295
 orbitals (Q,E):
 ---------------
 S :1...2            ( 2.00    -1.1093)  ( 0.00     0.7549)
 P :1...2            ( 4.00    -0.5518)  ( 0.00     0.2590)
 D :1...1            ( 0.00     0.8910)

 CYCLE    4
  SDIIS (wt  0.000):  0.0919  0.9081
 A-DIIS (wt  1.000):  0.0000  1.0000
  DIIS coefficients:  0.0000  1.0000
 SCF Error: norm([F,P])=      0.289027138405, max([F,P])=      0.130648623511
 orbitals (Q,E):
 ---------------
 S :1...2            ( 2.00    -0.7707)  ( 0.00     0.9912)
 P :1...2            ( 4.00    -0.2284)  ( 0.00     0.4046)
 D :1...1            ( 0.00     1.1288)

 CYCLE    5
  SDIIS (wt  0.000):  0.0260  0.6740  0.3001
 A-DIIS (wt  1.000):  0.0000  0.5764  0.4236
  DIIS coefficients:  0.0000  0.5764  0.4236
 SCF Error: norm([F,P])=      0.416615089426, max([F,P])=      0.232643669786
 orbitals (Q,E):
 ---------------
 S :1...2            ( 2.00    -0.8764)  ( 0.00     0.9107)
 P :1...2            ( 4.00    -0.3280)  ( 0.00     0.3557)
 D :1...1            ( 0.00     1.0703)

 CYCLE    6
  SDIIS (wt  0.942):  0.0005  0.0237 -0.0203  0.9960
 A-DIIS (wt  0.058):  0.0000  0.0000  0.0000  1.0000
  DIIS coefficients:  0.0005  0.0224 -0.0191  0.9962
 SCF Error: norm([F,P])=      0.013723272809, max([F,P])=      0.006719036732
 orbitals (Q,E):
 ---------------
 S :1...2            ( 2.00    -0.8830)  ( 0.00     0.9058)
 P :1...2            ( 4.00    -0.3343)  ( 0.00     0.3521)
 D :1...1            ( 0.00     1.0657)

 CYCLE    7
  SDIIS (wt  1.000): -0.0000  0.0016  0.0023  0.0424  0.9537
  DIIS coefficients: -0.0000  0.0016  0.0023  0.0424  0.9537
 SCF Error: norm([F,P])=      0.001103645928, max([F,P])=      0.000634039171
 orbitals (Q,E):
 ---------------
 S :1...2            ( 2.00    -0.8827)  ( 0.00     0.9060)
 P :1...2            ( 4.00    -0.3340)  ( 0.00     0.3523)
 D :1...1            ( 0.00     1.0659)

 CYCLE    8
  SDIIS (wt  1.000): -0.0000 -0.0001  0.0000 -0.0032  0.0268  0.9765
  DIIS coefficients: -0.0000 -0.0001  0.0000 -0.0032  0.0268  0.9765
 SCF Error: norm([F,P])=      0.000035919805, max([F,P])=      0.000020263970
 orbitals (Q,E):
 ---------------
 S :1...2            ( 2.00    -0.8827)  ( 0.00     0.9060)
 P :1...2            ( 4.00    -0.3340)  ( 0.00     0.3522)
 D :1...1            ( 0.00     1.0659)

 CYCLE    9
  SDIIS (wt  1.000): -0.0000  0.0008  0.0188  0.9804
  DIIS coefficients: -0.0000  0.0008  0.0188  0.9804
 SCF Error: norm([F,P])=      0.000000326384, max([F,P])=      0.000000183924
 orbitals (Q,E):
 ---------------
 S :1...2            ( 2.00    -0.8827)  ( 0.00     0.9060)
 P :1...2            ( 4.00    -0.3340)  ( 0.00     0.3522)
 D :1...1            ( 0.00     1.0659)

 CYCLE   10
  SDIIS (wt  1.000):  0.0000  0.0003  0.9996
  DIIS coefficients:  0.0000  0.0003  0.9996
 SCF Error: norm([F,P])=      0.000000000559, max([F,P])=      0.000000000306
 orbitals (Q,E):
 ---------------
 S :1...2            ( 2.00    -0.8827)  ( 0.00     0.9060)
 P :1...2            ( 4.00    -0.3340)  ( 0.00     0.3522)
 D :1...1            ( 0.00     1.0659)

 SCF CONVERGED

 CYCLE   11
1
 ***************************************************************************************************



                                                *******************
                                                *  R E S U L T S  *
                                                *******************
  
 *** Using FIT density in Focky
  SDIIS (wt  1.000): -0.0000  0.0143  0.9857
  DIIS coefficients: -0.0000  0.0143  0.9857
 SCF Error: norm([F,P])=      0.000000000010, max([F,P])=      0.000000000006

 Scaled ZORA Orbital Energies, per Irrep and Spin:
 =================================================
                        Occup              E (au)              E (eV)       Diff (eV) with prev. cycle
                        -----      --------------------        ------       --------------------------
 S
               1        2.000     -0.88272313143209E+00       -24.020              -9.28E-11
               2        0.000      0.90601345014671E+00        24.654
               3        0.000      0.29578810816937E+02       804.880
 P
               1        4.000     -0.33400585272070E+00        -9.089              -8.94E-11
               2        0.000      0.35224911365993E+00         9.585
               3        0.000      0.38342927625315E+01       104.336
 D
               1        0.000      0.10658965783141E+01        29.005


 Partially Occupied:
               1 P                -0.33400585272070E+00
  
 HOMO :        1 S                -0.88272313143209E+00
 LUMO :        2 P                 0.35224911365993E+00
  


 Orbital Energies, all Irreps
 ========================================

 Irrep        no.  (spin)   Occup              E (au)                E (eV)
 ---------------------------------------------------------------------------
 S             1             2.00       -0.88272313143209E+00       -24.0201
 P             1             4.00       -0.33400585272070E+00        -9.0888
 P             2             0.00        0.35224911365993E+00         9.5852
 S             2             0.00        0.90601345014671E+00        24.6539
 D             1             0.00        0.10658965783141E+01        29.0045
 P             3             0.00        0.38342927625315E+01       104.3364
 S             3             0.00        0.29578810816937E+02       804.8804


 Scaled ZORA Orbital Energies of the Core Orbitals:
 ==================================================

 (Note that the atoms are grouped by atomtype, see the labels, and may hence NOT be in input order)

 AtomType  Orbital  Atom                   E (au)                        E (eV)
 --------  -------  ----           --------------------        ----------------
 O           1S        1          -0.18925919758629E+02                -515.000



 =======================================
 M U L L I K E N   P O P U L A T I O N S
 =======================================
  
 The survey below gives for each atom:
 a) the total charge (Z minus electrons)
 b) the net spin polarization (nr of electrons spin-A minus spin-B)
 c) for each spin the atomic electron valence density (integrated) per L-value.

 Atom              Charge    Spin density          S         P         D         F
 ----              ------    ------------       ------    ------    ------    ------
 1 O              -0.0000                       2.0000    4.0000    0.0000    0.0000

 Populations of individual BAS functions
 ----------------------------------------
 1 O            0.0005  0.9226  1.0966 -0.0196  0.3346  0.3346  0.3346  0.7512  0.7512  0.7512
                0.2476  0.2476  0.2476  0.0000  0.0000  0.0000  0.0000  0.0000  0.0000

 Gross Charges per Atom (Z minus electrons)
 ==========================================
            -0.0000
 Net Total: -0.00000000



 =======================================================================
 Electrostatic potential at the Nuclei due to electrons and other nuclei
 =======================================================================
  
         Atom                  Potential
         ----                  ---------
     1)   O                  22.20265662
 
 
 ========================
 No memory problems found
 ========================
 
 Maximum number of active allocate calls:         389
 
 *******************************************************************************

                             A D F   E X I T
 NORMAL TERMINATION



 =================
 Timing Statistics
 =================
  
 Total Used :                     CPU=        0.44      System=        0.02     Elapsed=        0.50

 Calls  Section                     ( Mean, Percentage )
 ---------------------------------------------------------------------------------------------------
     3  ><      ................      0.00    0.90             0.00    0.00             0.00    0.92
     1  INIT    ................      0.07   16.22             0.00   20.00             0.08   16.43
     1  GEOMET  ................      0.02    3.60             0.00    0.00             0.02    4.91
     1  INPUTA  ................      0.00    0.90             0.00    0.00             0.00    0.70
     1  MAINSY  ................      0.01    1.80             0.00   20.00             0.01    2.90
     1  SYMFIT  ................      0.00    0.00             0.00    0.00             0.00    0.35
     1  CORORT  ................      0.00    0.90             0.00    0.00             0.00    0.32
     1  SYMORB  ................      0.00    0.00             0.00    0.00             0.00    0.18
     1  CLSMAT  ................      0.00    0.90             0.00    0.00             0.01    1.20
     1  ORTHON  ................      0.00    0.90             0.00    0.00             0.01    1.09
     1  GENPT   ................      0.02    3.60             0.00    0.00             0.02    3.09
     1  PTBAS   ................      0.00    0.90             0.00    0.00             0.01    1.14
    11  FOCKY   ................      0.02   54.05             0.00   40.00             0.02   51.05
    11  FOCKTR  ................      0.00    0.90             0.00    0.00             0.00    1.54
    11  SDIIS   ................      0.00    7.21             0.00    0.00             0.00    6.29
     1  COREPS  ................      0.02    3.60             0.00    0.00             0.02    3.62
     1  POPAN   ................      0.00    0.90             0.00    0.00             0.01    1.13
     1  DEBYE   ................      0.00    0.00             0.00   20.00             0.00    0.39
     1  EXIT PROCEDURE .........      0.01    2.70             0.00    0.00             0.01    2.73


 Currently Open Files (EXIT00)
 ====================

 Unit    Access Format  Status   Type       Ident (file)
 -------------------------------------------------------
   3      SEQ    FORM   TRANSP  NORMAL      LOGFILE
                                          ( logfile )

 ***************************************************************************************************
 (LOGFILE)
 <Sep07-2020> <17:02:22>  DIRAC 2019  RunTime: Sep07-2020 17:02:22  Nodes: 1  Procs: 1
 <Sep07-2020> <17:02:22>  NORMAL TERMINATION
 <Sep07-2020> <17:02:22>  END
 <Sep07-2020> <17:02:22>  ADF 2019  RunTime: Sep07-2020 17:02:22  Nodes: 1  Procs: 1
 <Sep07-2020> <17:02:22>  Hydrogen (TZP)
 <Sep07-2020> <17:02:22>  RunType   : CREATE
 <Sep07-2020> <17:02:22>  Net Charge: 0 (Nuclei minus Electrons)
 <Sep07-2020> <17:02:22>  Symmetry  : ATOM
  Coordinates
    Atom         X           Y           Z   (Angstrom)
    1.H         0.000000    0.000000    0.000000
 <Sep07-2020> <17:02:22>  >>>> CORORT
 <Sep07-2020> <17:02:22>  >>>> CLSMAT
 <Sep07-2020> <17:02:22>  >>>> ORTHON
 <Sep07-2020> <17:02:22>  >>>> GENPT
 <Sep07-2020> <17:02:22>  Block Length=  64
 <Sep07-2020> <17:02:22>  >>>> PTBAS
 <Sep07-2020> <17:02:22>  >>>> CYCLE
 <Sep07-2020> <17:02:23>              |Error|         MaxErr       Wt(A-DIIS)
 <Sep07-2020> <17:02:23>      1      0.00000000      0.00000000
 <Sep07-2020> <17:02:23>      2      0.03153787      0.03011049
 <Sep07-2020> <17:02:23>      3      0.00861799      0.00834303    100.0
 <Sep07-2020> <17:02:23>      4      0.00173235      0.00171862      0.7
 <Sep07-2020> <17:02:23>      5      0.00004367      0.00003977      0.0
 <Sep07-2020> <17:02:23>      6      0.00000238      0.00000216      0.0
 <Sep07-2020> <17:02:23>      7      0.00000001      0.00000001      0.0
 <Sep07-2020> <17:02:23>  SCF converged
 <Sep07-2020> <17:02:23>      8      0.00000000      0.00000000      0.0
 <Sep07-2020> <17:02:23>  >>>> POPAN
 <Sep07-2020> <17:02:23>  >>>> DEBYE
 <Sep07-2020> <17:02:23>  NORMAL TERMINATION
 <Sep07-2020> <17:02:23>  END
 <Sep07-2020> <17:02:23>  DIRAC 2019  RunTime: Sep07-2020 17:02:23  Nodes: 1  Procs: 1
 <Sep07-2020> <17:02:23>  NORMAL TERMINATION
 <Sep07-2020> <17:02:23>  END
 <Sep07-2020> <17:02:23>  ADF 2019  RunTime: Sep07-2020 17:02:23  Nodes: 1  Procs: 1
 <Sep07-2020> <17:02:23>  Oxygen (TZP, 1s frozen)
 <Sep07-2020> <17:02:23>  RunType   : CREATE
 <Sep07-2020> <17:02:23>  Net Charge: 0 (Nuclei minus Electrons)
 <Sep07-2020> <17:02:23>  Symmetry  : ATOM
  Coordinates
    Atom         X           Y           Z   (Angstrom)
    1.O         0.000000    0.000000    0.000000
 <Sep07-2020> <17:02:23>  >>>> CORORT
 <Sep07-2020> <17:02:23>  >>>> CLSMAT
 <Sep07-2020> <17:02:23>  >>>> ORTHON
 <Sep07-2020> <17:02:23>  >>>> GENPT
 <Sep07-2020> <17:02:23>  Block Length=  68
 <Sep07-2020> <17:02:23>  >>>> PTBAS
 <Sep07-2020> <17:02:23>  >>>> CYCLE
 <Sep07-2020> <17:02:23>              |Error|         MaxErr       Wt(A-DIIS)
 <Sep07-2020> <17:02:23>      1      0.00000000      0.00000000
 <Sep07-2020> <17:02:23>      2      4.56299337      2.52897111
 <Sep07-2020> <17:02:23>      3      2.72315525      1.79866705    100.0
 <Sep07-2020> <17:02:23>      4      0.28902714      0.13064862    100.0
 <Sep07-2020> <17:02:23>      5      0.41661509      0.23264367    100.0
 <Sep07-2020> <17:02:23>      6      0.01372327      0.00671904      5.8
 <Sep07-2020> <17:02:23>      7      0.00110365      0.00063404      0.0
 <Sep07-2020> <17:02:23>      8      0.00003592      0.00002026      0.0
 <Sep07-2020> <17:02:23>      9      0.00000033      0.00000018      0.0
 <Sep07-2020> <17:02:23>     10      0.00000000      0.00000000      0.0
 <Sep07-2020> <17:02:23>  SCF converged
 <Sep07-2020> <17:02:23>     11      0.00000000      0.00000000      0.0
 <Sep07-2020> <17:02:23>  >>>> POPAN
 <Sep07-2020> <17:02:23>  >>>> DEBYE
 <Sep07-2020> <17:02:23>  NORMAL TERMINATION
 <Sep07-2020> <17:02:23>  END

 *******************************************************************************
 *                                                                             *
 *  -------------------------------------                                      *
 *   Amsterdam Density Functional  (ADF)         2019                          *
 *  -------------------------------------                                      *
 *                                               r79301 2019-11-09             *
 *                                                                             *
 *                                                                             *
 *                            =====================                            *
 *                            |                   |                            *
 *                            |     D I R A C     |                            *
 *                            |                   |                            *
 *                            =====================                            *
 *                                                                             *
 *                                                                             *
 *   Online information and documentation:  https://www.scm.com/support/       *
 *   E-mail:  support@scm.com   info@scm.com                                   *
 *                                                                             *
 *   Scientific publications using ADF results must be properly referenced     *
 *   See the User Manuals (or the web site) for recommended citations          *
 *   The terms and conditions of the End User License Agreement apply to       *
 *   the use of ADF, https://www.scm.com/license-terms/                        *
 *                                                                             *
 **********************  x86_64_linux_intel / intelmpi  ************************
 
 
 
  
 DIRAC 2019  RunTime: Sep07-2020 17:02:24  Nodes: 1  Procs: 1

 Temporary files are created in /scratch/kid_0.1528363476 (0x58465342)

1
 TUNGSTEN ATOM 4d CORE RELATIVISTIC, Point Nuc, A and c from 
 N J RN H ZN XION ANUC CLIGHT
 5000   22100.00000000197.36710137 74.00000000  0.00000000  183.950932  0.1370360E+03
  PH   PHI     EPS        DEL        DELRVR
  0.30  0.30     2500.00  0.00001000  0.00001000
 IDIRC  NC1  NDEBU NPRIN  IPUN IRCOR IWCOR
   1   300     0     0     0     0    14
   XALPHA      XLATTER      RNUC
  0.70000000  0.00000000  0.00000000 Point Charge
   XN   XL   XJ      XE          XZ      XDELL
  1.0  0.0  0.5   -2600.000       2.000     0.00000
  2.0  0.0  0.5    -425.000       2.000     0.00000
  2.0  1.0  0.5    -425.000       2.000     0.00000
  2.0  1.0  1.5    -425.000       4.000     0.00000
  3.0  0.0  0.5    -100.000       2.000     0.00000
  3.0  1.0  0.5    -100.000       2.000     0.00000
  3.0  1.0  1.5    -100.000       4.000     0.00000
  3.0  2.0  1.5     -80.000       4.000     0.00000
  3.0  2.0  2.5     -80.000       6.000     0.00000
  4.0  0.0  0.5     -22.000       2.000     0.00000
  4.0  1.0  0.5     -20.000       2.000     0.00000
  4.0  1.0  1.5     -20.000       4.000     0.00000
  4.0  2.0  1.5     -11.000       4.000     0.00000
  4.0  2.0  2.5     -11.000       6.000     0.00000
  4.0  3.0  2.5      -1.000       6.000     0.00000
  4.0  3.0  3.5      -1.000       8.000     0.00000
  5.0  0.0  0.5      -3.000       2.000     0.00000
  5.0  1.0  0.5      -2.200       2.000     0.00000
  5.0  1.0  1.5      -2.200       4.000     0.00000
  5.0  2.0  1.5      -0.500       4.000     0.00000
  5.0  2.0  2.5      -0.500       0.000     0.00000
  6.0  0.0  0.5      -0.200       2.000     0.00000
 ICORP=  0  NPCL=  0  DEMP=0.00  PEPS=0.000000
 R(1)=  0.1000000E-08 D=  0.1005080E+01 RNUC=  0.0000000E+00
 converged at cycle   63  DENSITY AVERAGING    0.1536
  MAXIMUM ERROR IN R.V(R) IS   0.78838062E-05
 Q,EY,EV,EZ,ESUM,ETOT,RHO  0.740000E+02 -0.431420E+03 -0.281568E+05 -0.403919E+05 -0.993885E+04 -0.161643E+05  0.726391E-09


 DIRAC CALCULATION
1                    TUNGSTEN ATOM 4d CORE RELATIVISTIC, Point Nuc, A and c from libtc


 EXCHANGE COEFFICIENT=  0.7000000           TAIL CORRECTION=  0.           NUCLEAR RADIUS=  0.000E+00
0                       ORBITAL    N    L    J     ELECTRONS     EIGENVALUE                DELTA OF EIGENV.

                          1S1/2  1.0  0.0  0.5     2.000       -0.2549514E+04                 0.5980248E-04
                          2S1/2  2.0  0.0  0.5     2.000       -0.4399118E+03                 0.5052420E-04
                          2P1/2  2.0  1.0  0.5     2.000       -0.4208427E+03                 0.5265062E-04
                          2P3/2  2.0  1.0  1.5     4.000       -0.3711192E+03                 0.5139441E-04
                          3S1/2  3.0  0.0  0.5     2.000       -0.1012881E+03                 0.3437035E-04
                          3P1/2  3.0  1.0  0.5     2.000       -0.9277148E+02                 0.3553128E-04
                          3P3/2  3.0  1.0  1.5     4.000       -0.8201733E+02                 0.3404634E-04
                          3D3/2  3.0  2.0  1.5     4.000       -0.6762803E+02                 0.3680712E-04
                          3D5/2  3.0  2.0  2.5     6.000       -0.6528623E+02                 0.3629511E-04
                          4S1/2  4.0  0.0  0.5     2.000       -0.2084139E+02                 0.1939427E-04
                          4P1/2  4.0  1.0  0.5     2.000       -0.1730737E+02                 0.1933978E-04
                          4P3/2  4.0  1.0  1.5     4.000       -0.1480597E+02                 0.1810922E-04
                          4D3/2  4.0  2.0  1.5     4.000       -0.8989319E+01                 0.1779394E-04
                          4D5/2  4.0  2.0  2.5     6.000       -0.8528007E+01                 0.1741170E-04
                          4F5/2  4.0  3.0  2.5     6.000       -0.1237480E+01                 0.1544089E-04
                          4F7/2  4.0  3.0  3.5     8.000       -0.1154634E+01                 0.1522033E-04
                          5S1/2  5.0  0.0  0.5     2.000       -0.2863514E+01                 0.7979521E-05
                          5P1/2  5.0  1.0  0.5     2.000       -0.1813289E+01                 0.7246225E-05
                          5P3/2  5.0  1.0  1.5     4.000       -0.1448762E+01                 0.6602120E-05
                          5D3/2  5.0  2.0  1.5     4.000       -0.1486933E+00                 0.3973088E-05
                          5D5/2  5.0  2.0  2.5     0.000       -0.1223153E+00                 0.3735081E-05
                          6S1/2  6.0  0.0  0.5     2.000       -0.1847434E+00                 0.1808440E-05


                                        NUCLEAR CHARGE=   74.000000
                            INTEGRAL OF CHARGE DENSITY=   74.000000
                           SUM OF THE ORBITAL ENERGIES=  -9938.8529
                                          TOTAL ENERGY= -16164.2530
                                        KINETIC ENERGY=  18217.9700
                             NUCLEAR ATTRACTION ENERGY= -40391.9132
                             ELECTRON REPULSION ENERGY=   6333.2551
                                       EXCHANGE ENERGY=   -323.5649

 *******************************************************************************

                             D I R A C   E X I T
 NORMAL TERMINATION



 =================
 Timing Statistics
 =================
  
 Total Used :                     CPU=        0.69      System=        0.01     Elapsed=        0.72

 Calls  Section                     ( Mean, Percentage )
 ---------------------------------------------------------------------------------------------------
     2  ><      ................      0.00    0.00             0.00    0.00             0.00    0.00
     1  EXIT PROCEDURE .........      0.69  100.00             0.01  100.00             0.72  100.00


 Currently Open Files (EXIT00)
 ====================

 Unit    Access Format  Status   Type       Ident (file)
 -------------------------------------------------------
   3      SEQ    FORM   TRANSP  NORMAL      LOGFILE
                                          ( logfile )
 
Create W   file=TZP-W.4d
XC
  GGA PBE
End
relativistic ZORA
Corepotentials t12.rel
End

 *******************************************************************************
 *                                                                             *
 *  -------------------------------------                                      *
 *   Amsterdam Density Functional  (ADF)         2019                          *
 *  -------------------------------------                                      *
 *                                               r79301 2019-11-09             *
 *                                                                             *
 *                                                                             *
 *                              =================                              *
 *                              |               |                              *
 *                              |     A D F     |                              *
 *                              |               |                              *
 *                              =================                              *
 *                                                                             *
 *                                                                             *
 *   Online information and documentation:  https://www.scm.com/support/       *
 *   E-mail:  support@scm.com   info@scm.com                                   *
 *                                                                             *
 *   Scientific publications using ADF results must be properly referenced     *
 *   See the User Manuals (or the web site) for recommended citations          *
 *   The terms and conditions of the End User License Agreement apply to       *
 *   the use of ADF, https://www.scm.com/license-terms/                        *
 *                                                                             *
 **********************  x86_64_linux_intel / intelmpi  ************************
 
 
 
  
 ADF 2019  RunTime: Sep07-2020 17:02:24  Nodes: 1  Procs: 1

 Temporary files are created in /scratch/kid_0.1234377612 (0x58465342)

 Tungsten (TZP, 4d frozen)



 ===========================
 A T T A C H E D   F I L E S
 ===========================
  
 CREATE - Data File:    TZP-W.4d
                        Tungsten (TZP, 4d frozen)
 Core Potentials:
         file : t12.rel



 ===============================
 M O D E L   P A R A M E T E R S
 ===============================
  
 DENSITY FUNCTIONAL POTENTIAL (scf)
    LDA:                               PW92                                    == Not Default ==
    Gradient Corrections:              PBEc PBEx                               == Not Default ==

 SPIN  (restricted / unrestr.)
    Molecule:                          Restricted                               

 OTHER ASPECTS
    Relativistic Corrections:          scalar (ZORA,MAPA)                      == Not Default ==

    Nuclear Charge Density Model:      Point Charge Nuclei                      
    Core Treatment:                    Frozen Orbital(s)                        

    Hyperfine or Zeeman Interaction:   ---                                      



 =====================================
 S Y M M E T R Y ,   E L E C T R O N S
 =====================================
  
 Symmetry: ATOM

 Irreducible Representations, including subspecies
 -------------------------------------------------
 S
 P:x  P:y  P:z
 D:z2  D:x2-y2  D:xy  D:xz  D:yz
 F:z3  F:z  F:xyz  F:z2x  F:z2y  F:x  F:y


 Configuration of Valence Electrons
 ==================================

          Occupation Numbers
          -------------------------------------------------
 S        2*2
 P        6
 D        4
 F        14
          -------------------------------------------------

 Total:   28

 Net Charge: 0 (Nuclei minus Electrons)

 Preset values for MO occupations will be applied through SCF cycle no. 1000000
 Thereafter, the program will assign electrons to MOs that are spatially
 similar to the occupied MOs in a "reference" cycle ("KeepOrbitals").
 The reference cycle is always the PREVIOUS cycle: it will evolve with
 the SCF procedure.



 ================================
 (Slater-type)  F U N C T I O N S  ***  (Basis and Fit)  ***
 ================================
  

 Atom Type    1  (W)
 ==============

 Valence Basis Sets:  25
 -----------------------
   1 S   52.000000
   2 S   33.250000
   3 S   19.100000
   4 S   11.650000
   2 P   36.850000
   3 P   16.500000
   4 P   11.550000
   3 D   20.100000
   4 D   10.300000
   1 S  163.900000
   5 S    6.050000
   5 S    3.950000
   6 S    2.850000
   6 S    1.800000
   6 S    1.140000
   5 P    5.900000
   5 P    4.000000
   5 P    2.700000
   5 D    4.150000
   5 D    2.250000
   5 D    1.200000
   4 F   13.550000
   4 F    7.050000
   4 F    3.550000
   6 P    1.800000

 Frozen Core Shells
 ------------------
    S:  4
    P:  3
    D:  2


 BAS: List of all Elementary Cartesian Basis Functions
 =====================================================

 The numbering in the list below (to the right of the function characteristics) is referred
 to in print-outs of MO eigenvectors and Mulliken populations in the BAS representation
 (as contrasted to the SFO representation).

 Notes:
 1. The functions are characterized by a polynomial prefactor (powers of x,y,z and r) and
    an exponential decay factor alpha.
 2. Since the basis sets are specific for an atom TYPE, the individual functions occur on
    all atoms of that type.
 3. The word 'Core' in the left margin signals that it is a Core Function (CF) : not a
    degree of freedom in the valence set, but only used to ensure orthogonalization of
    the other valence basis functions on the frozen Core Orbitals.


 (power of) X  Y  Z  R     Alpha  on Atom
            ==========     =====     ==========

 W                                    1
                                  ---------------------------------------------------------------------------
    Core    0  0  0  0    52.000      1
    Core    0  0  0  1    33.250      2
    Core    0  0  0  2    19.100      3
    Core    0  0  0  3    11.650      4
    Core    1  0  0  0    36.850      5
    Core    0  1  0  0    36.850      6
    Core    0  0  1  0    36.850      7
    Core    1  0  0  1    16.500      8
    Core    0  1  0  1    16.500      9
    Core    0  0  1  1    16.500     10
    Core    1  0  0  2    11.550     11
    Core    0  1  0  2    11.550     12
    Core    0  0  1  2    11.550     13
    Core    2  0  0  0    20.100     14
    Core    1  1  0  0    20.100     15
    Core    1  0  1  0    20.100     16
    Core    0  2  0  0    20.100     17
    Core    0  1  1  0    20.100     18
    Core    0  0  2  0    20.100     19
    Core    2  0  0  1    10.300     20
    Core    1  1  0  1    10.300     21
    Core    1  0  1  1    10.300     22
    Core    0  2  0  1    10.300     23
    Core    0  1  1  1    10.300     24
    Core    0  0  2  1    10.300     25
            0  0  0  0   163.900     26
            0  0  0  4     6.050     27
            0  0  0  4     3.950     28
            0  0  0  5     2.850     29
            0  0  0  5     1.800     30
            0  0  0  5     1.140     31
            1  0  0  3     5.900     32
            0  1  0  3     5.900     33
            0  0  1  3     5.900     34
            1  0  0  3     4.000     35
            0  1  0  3     4.000     36
            0  0  1  3     4.000     37
            1  0  0  3     2.700     38
            0  1  0  3     2.700     39
            0  0  1  3     2.700     40
            2  0  0  2     4.150     41
            1  1  0  2     4.150     42
            1  0  1  2     4.150     43
            0  2  0  2     4.150     44
            0  1  1  2     4.150     45
            0  0  2  2     4.150     46
            2  0  0  2     2.250     47
            1  1  0  2     2.250     48
            1  0  1  2     2.250     49
            0  2  0  2     2.250     50
            0  1  1  2     2.250     51
            0  0  2  2     2.250     52
            2  0  0  2     1.200     53
            1  1  0  2     1.200     54
            1  0  1  2     1.200     55
            0  2  0  2     1.200     56
            0  1  1  2     1.200     57
            0  0  2  2     1.200     58
            3  0  0  0    13.550     59
            2  1  0  0    13.550     60
            2  0  1  0    13.550     61
            1  2  0  0    13.550     62
            1  1  1  0    13.550     63
            1  0  2  0    13.550     64
            0  3  0  0    13.550     65
            0  2  1  0    13.550     66
            0  1  2  0    13.550     67
            0  0  3  0    13.550     68
            3  0  0  0     7.050     69
            2  1  0  0     7.050     70
            2  0  1  0     7.050     71
            1  2  0  0     7.050     72
            1  1  1  0     7.050     73
            1  0  2  0     7.050     74
            0  3  0  0     7.050     75
            0  2  1  0     7.050     76
            0  1  2  0     7.050     77
            0  0  3  0     7.050     78
            3  0  0  0     3.550     79
            2  1  0  0     3.550     80
            2  0  1  0     3.550     81
            1  2  0  0     3.550     82
            1  1  1  0     3.550     83
            1  0  2  0     3.550     84
            0  3  0  0     3.550     85
            0  2  1  0     3.550     86
            0  1  2  0     3.550     87
            0  0  3  0     3.550     88
            1  0  0  4     1.800     89
            0  1  0  4     1.800     90
            0  0  1  4     1.800     91

 Total number of charge fitting functions (nprimf)       329
 Total number of Cartesian basis functions (naos)         91
 Total number of Cartesian core functions  (ncos)         25



 BAS: List of all Elementary Cartesian Basis Functions
 =====================================================

 The numbering in the list below (to the right of the function characteristics) is referred
 to in print-outs of MO eigenvectors and Mulliken populations in the BAS representation
 (as contrasted to the SFO representation).

 Notes:
 1. The functions are characterized by a polynomial prefactor (powers of x,y,z and r) and
    an exponential decay factor alpha.
 2. Since the basis sets are specific for an atom TYPE, the individual functions occur on
    all atoms of that type.
 3. The word 'Core' in the left margin signals that it is a Core Function (CF) : not a
    degree of freedom in the valence set, but only used to ensure orthogonalization of
    the other valence basis functions on the frozen Core Orbitals.


 (power of) X  Y  Z  R     Alpha  on Atom
            ==========     =====     ==========

 W                                    1
                                  ---------------------------------------------------------------------------
    Core    0  0  0  0    52.000      1
    Core    0  0  0  1    33.250      2
    Core    0  0  0  2    19.100      3
    Core    0  0  0  3    11.650      4
    Core    1  0  0  0    36.850      5
    Core    0  1  0  0    36.850      6
    Core    0  0  1  0    36.850      7
    Core    1  0  0  1    16.500      8
    Core    0  1  0  1    16.500      9
    Core    0  0  1  1    16.500     10
    Core    1  0  0  2    11.550     11
    Core    0  1  0  2    11.550     12
    Core    0  0  1  2    11.550     13
    Core    2  0  0  0    20.100     14
    Core    1  1  0  0    20.100     15
    Core    1  0  1  0    20.100     16
    Core    0  2  0  0    20.100     17
    Core    0  1  1  0    20.100     18
    Core    0  0  2  0    20.100     19
    Core    2  0  0  1    10.300     20
    Core    1  1  0  1    10.300     21
    Core    1  0  1  1    10.300     22
    Core    0  2  0  1    10.300     23
    Core    0  1  1  1    10.300     24
    Core    0  0  2  1    10.300     25
            0  0  0  0   163.900     26
            0  0  0  4     6.050     27
            0  0  0  4     3.950     28
            0  0  0  5     2.850     29
            0  0  0  5     1.800     30
            0  0  0  5     1.140     31
            1  0  0  3     5.900     32
            0  1  0  3     5.900     33
            0  0  1  3     5.900     34
            1  0  0  3     4.000     35
            0  1  0  3     4.000     36
            0  0  1  3     4.000     37
            1  0  0  3     2.700     38
            0  1  0  3     2.700     39
            0  0  1  3     2.700     40
            2  0  0  2     4.150     41
            1  1  0  2     4.150     42
            1  0  1  2     4.150     43
            0  2  0  2     4.150     44
            0  1  1  2     4.150     45
            0  0  2  2     4.150     46
            2  0  0  2     2.250     47
            1  1  0  2     2.250     48
            1  0  1  2     2.250     49
            0  2  0  2     2.250     50
            0  1  1  2     2.250     51
            0  0  2  2     2.250     52
            2  0  0  2     1.200     53
            1  1  0  2     1.200     54
            1  0  1  2     1.200     55
            0  2  0  2     1.200     56
            0  1  1  2     1.200     57
            0  0  2  2     1.200     58
            3  0  0  0    13.550     59
            2  1  0  0    13.550     60
            2  0  1  0    13.550     61
            1  2  0  0    13.550     62
            1  1  1  0    13.550     63
            1  0  2  0    13.550     64
            0  3  0  0    13.550     65
            0  2  1  0    13.550     66
            0  1  2  0    13.550     67
            0  0  3  0    13.550     68
            3  0  0  0     7.050     69
            2  1  0  0     7.050     70
            2  0  1  0     7.050     71
            1  2  0  0     7.050     72
            1  1  1  0     7.050     73
            1  0  2  0     7.050     74
            0  3  0  0     7.050     75
            0  2  1  0     7.050     76
            0  1  2  0     7.050     77
            0  0  3  0     7.050     78
            3  0  0  0     3.550     79
            2  1  0  0     3.550     80
            2  0  1  0     3.550     81
            1  2  0  0     3.550     82
            1  1  1  0     3.550     83
[...]
  Coordinates in Geometry Cycle 19
    Atom         X           Y           Z   (Angstrom)
    1.W        -0.230998    5.962141    2.458295
    2.W        -0.906805    3.430094    5.067975
    3.O        -0.187158    1.686114    4.887096
    4.O         0.630211    5.370945    1.035582
    5.O        -0.102171    4.652314    3.905442
    6.O        -1.909006    6.269551    2.012106
    7.O        -0.603100    3.926916    6.706935
    8.O         0.501263    7.486159    2.965010
    9.O        -2.623704    3.413283    4.817583
   10.H        -0.645775    1.074806    4.272628
 <Sep07-2020> <17:10:02>  >>>> CORORT
 <Sep07-2020> <17:10:02>  >>>> CLSMAT
 <Sep07-2020> <17:10:02>  >>>> ORTHON
 <Sep07-2020> <17:10:02>  >>>> GENPT
 <Sep07-2020> <17:10:03>  Block Length= 128
 <Sep07-2020> <17:10:03>  >>>> PTBAS
 <Sep07-2020> <17:10:03>  combining surface points...
 <Sep07-2020> <17:10:03>  combining surface points...
 <Sep07-2020> <17:10:03>  combining surface points...
 <Sep07-2020> <17:10:03>  >>>> CYCLE
 <Sep07-2020> <17:10:05>              |Error|         MaxErr       Wt(A-DIIS)
 <Sep07-2020> <17:10:05>      1      0.12287787      0.01637681
 <Sep07-2020> <17:10:07>      2      0.45595961      0.08994451    100.0
 <Sep07-2020> <17:10:08>      3      0.12311057      0.01414052    100.0
 <Sep07-2020> <17:10:09>      4      0.13271711      0.02581494     25.1
 <Sep07-2020> <17:10:10>      5      0.18485592      0.03486076    100.0
 <Sep07-2020> <17:10:11>      6      0.09289863      0.01593653     15.1
 <Sep07-2020> <17:10:12>      7      0.03629749      0.00564532      4.7
 <Sep07-2020> <17:10:13>      8      0.01473451      0.00200439      1.0
 <Sep07-2020> <17:10:14>      9      0.00347453      0.00052538      0.0
 <Sep07-2020> <17:10:15>     10      0.00073885      0.00013630      0.0
 <Sep07-2020> <17:10:16>     11      0.00047697      0.00009177      0.0
 <Sep07-2020> <17:10:17>     12      0.00013970      0.00004385      0.0
 <Sep07-2020> <17:10:18>     13      0.00017574      0.00003461      0.0
 <Sep07-2020> <17:10:19>     14      0.00002355      0.00000457      0.0
 <Sep07-2020> <17:10:20>     15      0.00000786      0.00000148      0.0
 <Sep07-2020> <17:10:21>     16      0.00000499      0.00000117      0.0
 <Sep07-2020> <17:10:22>     17      0.00000087      0.00000014      0.0
 <Sep07-2020> <17:10:22>  SCF converged
 <Sep07-2020> <17:10:22>     18      0.00000115      0.00000022      0.0
 <Sep07-2020> <17:10:23>  >>>> TOTEN
 <Sep07-2020> <17:10:25>  QTAIM: determining topology...
 <Sep07-2020> <17:10:26>  >>>> POPAN
 <Sep07-2020> <17:10:26>  >>>> DEBYE
 <Sep07-2020> <17:10:26>  >>>> AMETS
 <Sep07-2020> <17:10:26>  >>>> POPUL
 <Sep07-2020> <17:10:26>   Bond Energy          -3.06055492 a.u.
 <Sep07-2020> <17:10:26>   Bond Energy         -83.28193682 eV
 <Sep07-2020> <17:10:26>   Bond Energy       -1920.53       kcal/mol
 <Sep07-2020> <17:10:26>  >>>> ENHESS
 <Sep07-2020> <17:10:28>  === NUCLEUS:     1
 <Sep07-2020> <17:11:27>  === NUCLEUS:     2
 <Sep07-2020> <17:12:24>  === NUCLEUS:     3
 <Sep07-2020> <17:13:20>  === NUCLEUS:     4
 <Sep07-2020> <17:14:14>  === NUCLEUS:     5
 <Sep07-2020> <17:15:10>  === NUCLEUS:     6
 <Sep07-2020> <17:16:04>  === NUCLEUS:     7
 <Sep07-2020> <17:16:59>  === NUCLEUS:     8
 <Sep07-2020> <17:17:53>  === NUCLEUS:     9
 <Sep07-2020> <17:18:47>  === NUCLEUS:    10
 <Sep07-2020> <17:19:40>  >>>> CALC_HESS_PMAT
 <Sep07-2020> <17:19:44>  >>>> CALC_HESS_WMAT
 <Sep07-2020> <17:19:45>  Symmetry  : NOSYM
 <Sep07-2020> <17:19:45>  >>>> FRAGM
 <Sep07-2020> <17:19:45>  Geometry symmetry displacement    1 out of    6
  Coordinates in Geometry Cycle 19
    Atom         X           Y           Z   (Angstrom)
    1.W        -0.230993    5.962168    2.458272
    2.W        -0.906816    3.430026    5.067945
    3.O        -0.187126    1.685956    4.888175
    4.O         0.630162    5.371689    1.035231
    5.O        -0.102147    4.651367    3.904517
    6.O        -1.909005    6.269870    2.012293
    7.O        -0.603042    3.927970    6.706557
    8.O         0.501333    7.485893    2.965783
    9.O        -2.623725    3.413091    4.817663
   10.H        -0.646319    1.073791    4.275001
 <Sep07-2020> <17:19:45>  >>>> CORORT
 <Sep07-2020> <17:19:45>  >>>> CLSMAT
 <Sep07-2020> <17:19:45>  >>>> ORTHON
 <Sep07-2020> <17:19:45>  >>>> GENPT
 <Sep07-2020> <17:19:45>  Block Length= 128
 <Sep07-2020> <17:19:46>  >>>> PTBAS
 <Sep07-2020> <17:19:46>  combining surface points...
 <Sep07-2020> <17:19:46>  combining surface points...
 <Sep07-2020> <17:19:46>  combining surface points...
 <Sep07-2020> <17:19:46>  >>>> CYCLE
 <Sep07-2020> <17:19:48>              |Error|         MaxErr       Wt(A-DIIS)
 <Sep07-2020> <17:19:48>      1      0.12855542      0.01750530
 <Sep07-2020> <17:19:49>      2      0.45585764      0.07056521    100.0
 <Sep07-2020> <17:19:51>      3      0.12307981      0.01247700    100.0
 <Sep07-2020> <17:19:52>      4      0.13326215      0.02051191     19.7
 <Sep07-2020> <17:19:53>      5      0.16133066      0.02692153    100.0
 <Sep07-2020> <17:19:54>      6      0.11161263      0.02084405     20.0
 <Sep07-2020> <17:19:55>      7      0.04278048      0.00563217      4.7
 <Sep07-2020> <17:19:56>      8      0.01496242      0.00224518      1.3
 <Sep07-2020> <17:19:57>      9      0.00347346      0.00050959      0.0
 <Sep07-2020> <17:19:58>     10      0.00074934      0.00010852      0.0
 <Sep07-2020> <17:19:59>     11      0.00052616      0.00010702      0.0
 <Sep07-2020> <17:20:00>     12      0.00016953      0.00004255      0.0
 <Sep07-2020> <17:20:01>     13      0.00021832      0.00004209      0.0
 <Sep07-2020> <17:20:02>     14      0.00002052      0.00000304      0.0
 <Sep07-2020> <17:20:03>     15      0.00001078      0.00000226      0.0
 <Sep07-2020> <17:20:04>     16      0.00000500      0.00000121      0.0
 <Sep07-2020> <17:20:04>     17      0.00000094      0.00000015      0.0
 <Sep07-2020> <17:20:05>  SCF converged
 <Sep07-2020> <17:20:05>     18      0.00000149      0.00000033      0.0
 <Sep07-2020> <17:20:06>  >>>> TOTEN
 <Sep07-2020> <17:20:06>  >>>> POPAN
 <Sep07-2020> <17:20:06>  >>>> DEBYE
 <Sep07-2020> <17:20:06>  >>>> ENGRAD
 <Sep07-2020> <17:20:08>  Geometry symmetry displacement    2 out of    6
  Coordinates in Geometry Cycle 19
    Atom         X           Y           Z   (Angstrom)
    1.W        -0.231003    5.962115    2.458318
    2.W        -0.906793    3.430163    5.068005
    3.O        -0.187189    1.686272    4.886017
    4.O         0.630259    5.370202    1.035933
    5.O        -0.102194    4.653262    3.906366
    6.O        -1.909008    6.269232    2.011919
    7.O        -0.603159    3.925861    6.707314
    8.O         0.501194    7.486425    2.964237
    9.O        -2.623684    3.413475    4.817503
   10.H        -0.645230    1.075820    4.270256
 <Sep07-2020> <17:20:08>  >>>> CORORT
 <Sep07-2020> <17:20:08>  >>>> CLSMAT
 <Sep07-2020> <17:20:08>  >>>> ORTHON
 <Sep07-2020> <17:20:08>  >>>> GENPT
 <Sep07-2020> <17:20:08>  Block Length= 128
 <Sep07-2020> <17:20:08>  >>>> PTBAS
 <Sep07-2020> <17:20:09>  combining surface points...
 <Sep07-2020> <17:20:09>  combining surface points...
 <Sep07-2020> <17:20:09>  combining surface points...
 <Sep07-2020> <17:20:09>  >>>> CYCLE
 <Sep07-2020> <17:20:11>              |Error|         MaxErr       Wt(A-DIIS)
 <Sep07-2020> <17:20:11>      1      0.14434257      0.03504547
 <Sep07-2020> <17:20:12>      2      0.45622276      0.07058935    100.0
 <Sep07-2020> <17:20:13>      3      0.12317471      0.01239986    100.0
 <Sep07-2020> <17:20:14>      4      0.13204492      0.02031848     19.5
 <Sep07-2020> <17:20:16>      5      0.15949682      0.02665352    100.0
 <Sep07-2020> <17:20:17>      6      0.11337970      0.02113515     20.3
 <Sep07-2020> <17:20:18>      7      0.04271882      0.00563378      4.7
 <Sep07-2020> <17:20:19>      8      0.01498365      0.00223428      1.2
 <Sep07-2020> <17:20:20>      9      0.00346250      0.00050626      0.0
 <Sep07-2020> <17:20:21>     10      0.00074212      0.00010853      0.0
 <Sep07-2020> <17:20:22>     11      0.00052672      0.00010883      0.0
 <Sep07-2020> <17:20:23>     12      0.00017038      0.00004272      0.0
 <Sep07-2020> <17:20:24>     13      0.00021911      0.00004192      0.0
 <Sep07-2020> <17:20:25>     14      0.00002054      0.00000304      0.0
 <Sep07-2020> <17:20:26>     15      0.00001090      0.00000230      0.0
 <Sep07-2020> <17:20:27>     16      0.00000500      0.00000121      0.0
 <Sep07-2020> <17:20:27>     17      0.00000095      0.00000015      0.0
 <Sep07-2020> <17:20:28>  SCF converged
 <Sep07-2020> <17:20:28>     18      0.00000160      0.00000035      0.0
 <Sep07-2020> <17:20:29>  >>>> TOTEN
 <Sep07-2020> <17:20:29>  >>>> POPAN
 <Sep07-2020> <17:20:29>  >>>> DEBYE
 <Sep07-2020> <17:20:29>  >>>> ENGRAD
 <Sep07-2020> <17:20:31>  Old frequency:    -58.32346, new:     18.19492
 <Sep07-2020> <17:20:31>  Geometry symmetry displacement    3 out of    6
  Coordinates in Geometry Cycle 19
    Atom         X           Y           Z   (Angstrom)
    1.W        -0.231007    5.962063    2.458328
    2.W        -0.906756    3.430166    5.067940
    3.O        -0.188139    1.685778    4.886876
    4.O         0.630874    5.371546    1.035742
    5.O        -0.101745    4.652025    3.905267
    6.O        -1.909086    6.268571    2.011779
    7.O        -0.602508    3.926753    6.706869
    8.O         0.500269    7.486424    2.965432
    9.O        -2.623707    3.414256    4.817845
   10.H        -0.646996    1.074927    4.272129
 <Sep07-2020> <17:20:31>  >>>> CORORT
 <Sep07-2020> <17:20:31>  >>>> CLSMAT
 <Sep07-2020> <17:20:31>  >>>> ORTHON
 <Sep07-2020> <17:20:31>  >>>> GENPT
 <Sep07-2020> <17:20:31>  Block Length= 128
 <Sep07-2020> <17:20:31>  >>>> PTBAS
 <Sep07-2020> <17:20:32>  combining surface points...
 <Sep07-2020> <17:20:32>  combining surface points...
 <Sep07-2020> <17:20:32>  combining surface points...
 <Sep07-2020> <17:20:32>  >>>> CYCLE
 <Sep07-2020> <17:20:34>              |Error|         MaxErr       Wt(A-DIIS)
 <Sep07-2020> <17:20:34>      1      0.13547605      0.02242156
 <Sep07-2020> <17:20:35>      2      0.45584938      0.07062887    100.0
 <Sep07-2020> <17:20:36>      3      0.12307966      0.01249221    100.0
 <Sep07-2020> <17:20:37>      4      0.13255850      0.02042763     19.6
 <Sep07-2020> <17:20:38>      5      0.16038017      0.02674781    100.0
 <Sep07-2020> <17:20:40>      6      0.11246602      0.02098399     20.2
 <Sep07-2020> <17:20:41>      7      0.04271168      0.00562816      4.7
 <Sep07-2020> <17:20:42>      8      0.01496733      0.00223844      1.3
 <Sep07-2020> <17:20:43>      9      0.00346670      0.00050757      0.0
 <Sep07-2020> <17:20:44>     10      0.00074414      0.00010820      0.0
 <Sep07-2020> <17:20:45>     11      0.00052462      0.00010706      0.0
 <Sep07-2020> <17:20:46>     12      0.00016922      0.00004253      0.0
 <Sep07-2020> <17:20:47>     13      0.00021840      0.00004199      0.0
 <Sep07-2020> <17:20:48>     14      0.00002055      0.00000305      0.0
 <Sep07-2020> <17:20:49>     15      0.00001074      0.00000225      0.0
 <Sep07-2020> <17:20:49>     16      0.00000501      0.00000121      0.0
 <Sep07-2020> <17:20:50>     17      0.00000095      0.00000015      0.0
 <Sep07-2020> <17:20:51>  SCF converged
 <Sep07-2020> <17:20:51>     18      0.00000155      0.00000034      0.0
 <Sep07-2020> <17:20:52>  >>>> TOTEN
 <Sep07-2020> <17:20:52>  >>>> POPAN
 <Sep07-2020> <17:20:52>  >>>> DEBYE
 <Sep07-2020> <17:20:52>  >>>> ENGRAD
 <Sep07-2020> <17:20:54>  Geometry symmetry displacement    4 out of    6
  Coordinates in Geometry Cycle 19
    Atom         X           Y           Z   (Angstrom)
    1.W        -0.230989    5.962220    2.458262
    2.W        -0.906853    3.430022    5.068010
    3.O        -0.186177    1.686450    4.887316
    4.O         0.629547    5.370344    1.035422
    5.O        -0.102596    4.652604    3.905617
    6.O        -1.908927    6.270531    2.012432
    7.O        -0.603693    3.927078    6.707001
    8.O         0.502258    7.485894    2.964587
    9.O        -2.623702    3.412310    4.817321
   10.H        -0.644554    1.074685    4.273128
 <Sep07-2020> <17:20:54>  >>>> CORORT
 <Sep07-2020> <17:20:54>  >>>> CLSMAT
 <Sep07-2020> <17:20:54>  >>>> ORTHON
 <Sep07-2020> <17:20:54>  >>>> GENPT
 <Sep07-2020> <17:20:54>  Block Length= 128
 <Sep07-2020> <17:20:54>  >>>> PTBAS
 <Sep07-2020> <17:20:55>  combining surface points...
 <Sep07-2020> <17:20:55>  combining surface points...
 <Sep07-2020> <17:20:55>  combining surface points...
 <Sep07-2020> <17:20:55>  >>>> CYCLE
 <Sep07-2020> <17:20:57>              |Error|         MaxErr       Wt(A-DIIS)
 <Sep07-2020> <17:20:57>      1      0.14652334      0.03570190
 <Sep07-2020> <17:20:58>      2      0.45595836      0.07051937    100.0
 <Sep07-2020> <17:20:59>      3      0.12308257      0.01245609    100.0
 <Sep07-2020> <17:21:00>      4      0.13411166      0.02061779     19.8
 <Sep07-2020> <17:21:01>      5      0.16247472      0.02711336    100.0
 <Sep07-2020> <17:21:02>      6      0.11040681      0.02064287     19.8
 <Sep07-2020> <17:21:04>      7      0.04282819      0.00563414      4.7
 <Sep07-2020> <17:21:05>      8      0.01494590      0.00225335      1.3
 <Sep07-2020> <17:21:06>      9      0.00348079      0.00051210      0.0
 <Sep07-2020> <17:21:07>     10      0.00075700      0.00010880      0.0
 <Sep07-2020> <17:21:08>     11      0.00052738      0.00010650      0.0
 <Sep07-2020> <17:21:09>     12      0.00016964      0.00004258      0.0
 <Sep07-2020> <17:21:09>     13      0.00021826      0.00004230      0.0
 <Sep07-2020> <17:21:10>     14      0.00002047      0.00000304      0.0
 <Sep07-2020> <17:21:11>     15      0.00001082      0.00000227      0.0
 <Sep07-2020> <17:21:12>     16      0.00000498      0.00000121      0.0
 <Sep07-2020> <17:21:13>     17      0.00000093      0.00000015      0.0
 <Sep07-2020> <17:21:13>  SCF converged
 <Sep07-2020> <17:21:14>     18      0.00000141      0.00000031      0.0
 <Sep07-2020> <17:21:14>  >>>> TOTEN
 <Sep07-2020> <17:21:15>  >>>> POPAN
 <Sep07-2020> <17:21:15>  >>>> DEBYE
 <Sep07-2020> <17:21:15>  >>>> ENGRAD
 <Sep07-2020> <17:21:17>  Old frequency:    -39.04349, new:    -12.32506
 <Sep07-2020> <17:21:17>  Geometry symmetry displacement    5 out of    6
  Coordinates in Geometry Cycle 19
    Atom         X           Y           Z   (Angstrom)
    1.W        -0.231021    5.962012    2.458458
    2.W        -0.906718    3.430221    5.067818
    3.O        -0.187383    1.686045    4.887526
    4.O         0.629541    5.370875    1.035329
    5.O        -0.101239    4.652256    3.905632
    6.O        -1.909301    6.269166    2.013120
    7.O        -0.603854    3.927057    6.706926
    8.O         0.501290    7.486150    2.964735
    9.O        -2.623476    3.413757    4.816439
   10.H        -0.645407    1.075053    4.272297
 <Sep07-2020> <17:21:17>  >>>> CORORT
 <Sep07-2020> <17:21:17>  >>>> CLSMAT
 <Sep07-2020> <17:21:17>  >>>> ORTHON
 <Sep07-2020> <17:21:17>  >>>> GENPT
 <Sep07-2020> <17:21:17>  Block Length= 128
 <Sep07-2020> <17:21:17>  >>>> PTBAS
 <Sep07-2020> <17:21:17>  combining surface points...
 <Sep07-2020> <17:21:17>  combining surface points...
 <Sep07-2020> <17:21:17>  combining surface points...
 <Sep07-2020> <17:21:17>  >>>> CYCLE
 <Sep07-2020> <17:21:20>              |Error|         MaxErr       Wt(A-DIIS)
 <Sep07-2020> <17:21:20>      1      0.13232628      0.01873165
 <Sep07-2020> <17:21:21>      2      0.45611416      0.07063163    100.0
 <Sep07-2020> <17:21:22>      3      0.12314486      0.01247302    100.0
 <Sep07-2020> <17:21:23>      4      0.13219189      0.02036074     19.6
 <Sep07-2020> <17:21:24>      5      0.15983443      0.02668042    100.0
 <Sep07-2020> <17:21:25>      6      0.11312700      0.02110477     20.3
 <Sep07-2020> <17:21:26>      7      0.04275488      0.00563604      4.7
 <Sep07-2020> <17:21:27>      8      0.01498433      0.00223482      1.2
 <Sep07-2020> <17:21:28>      9      0.00346358      0.00050632      0.0
 <Sep07-2020> <17:21:29>     10      0.00074208      0.00010845      0.0
 <Sep07-2020> <17:21:30>     11      0.00052563      0.00010805      0.0
 <Sep07-2020> <17:21:31>     12      0.00016987      0.00004262      0.0
 <Sep07-2020> <17:21:32>     13      0.00021875      0.00004191      0.0
 <Sep07-2020> <17:21:33>     14      0.00002055      0.00000304      0.0
 <Sep07-2020> <17:21:34>     15      0.00001083      0.00000227      0.0
 <Sep07-2020> <17:21:35>     16      0.00000501      0.00000121      0.0
 <Sep07-2020> <17:21:36>     17      0.00000096      0.00000015      0.0
 <Sep07-2020> <17:21:36>  SCF converged
 <Sep07-2020> <17:21:37>     18      0.00000159      0.00000035      0.0
 <Sep07-2020> <17:21:37>  >>>> TOTEN
 <Sep07-2020> <17:21:37>  >>>> POPAN
 <Sep07-2020> <17:21:37>  >>>> DEBYE
 <Sep07-2020> <17:21:38>  >>>> ENGRAD
 <Sep07-2020> <17:21:39>  Geometry symmetry displacement    6 out of    6
  Coordinates in Geometry Cycle 19
    Atom         X           Y           Z   (Angstrom)
    1.W        -0.230975    5.962271    2.458133
    2.W        -0.906892    3.429968    5.068131
    3.O        -0.186933    1.686182    4.886666
    4.O         0.630880    5.371015    1.035835
    5.O        -0.103102    4.652373    3.905252
    6.O        -1.908711    6.269936    2.011092
    7.O        -0.602347    3.926774    6.706945
    8.O         0.501236    7.486168    2.965285
    9.O        -2.623933    3.412810    4.818727
   10.H        -0.646143    1.074558    4.272960
 <Sep07-2020> <17:21:39>  >>>> CORORT
 <Sep07-2020> <17:21:39>  >>>> CLSMAT
 <Sep07-2020> <17:21:39>  >>>> ORTHON
 <Sep07-2020> <17:21:39>  >>>> GENPT
 <Sep07-2020> <17:21:40>  Block Length= 128
 <Sep07-2020> <17:21:40>  >>>> PTBAS
 <Sep07-2020> <17:21:40>  combining surface points...
 <Sep07-2020> <17:21:40>  combining surface points...
 <Sep07-2020> <17:21:40>  combining surface points...
 <Sep07-2020> <17:21:40>  >>>> CYCLE
 <Sep07-2020> <17:21:42>              |Error|         MaxErr       Wt(A-DIIS)
 <Sep07-2020> <17:21:42>      1      0.14380249      0.03422453
 <Sep07-2020> <17:21:44>      2      0.45568304      0.07053243    100.0
 <Sep07-2020> <17:21:45>      3      0.12305713      0.01243179    100.0
 <Sep07-2020> <17:21:46>      4      0.13284493      0.02044771     19.6
 <Sep07-2020> <17:21:47>      5      0.16063799      0.02681180    100.0
 <Sep07-2020> <17:21:48>      6      0.11213938      0.02091030     20.1
 <Sep07-2020> <17:21:49>      7      0.04266690      0.00562131      4.7
 <Sep07-2020> <17:21:50>      8      0.01495691      0.00224148      1.3
 <Sep07-2020> <17:21:51>      9      0.00346932      0.00050868      0.0
 <Sep07-2020> <17:21:52>     10      0.00074618      0.00010831      0.0
 <Sep07-2020> <17:21:53>     11      0.00052536      0.00010723      0.0
 <Sep07-2020> <17:21:54>     12      0.00016937      0.00004256      0.0
 <Sep07-2020> <17:21:55>     13      0.00021834      0.00004201      0.0
 <Sep07-2020> <17:21:56>     14      0.00002053      0.00000304      0.0
 <Sep07-2020> <17:21:57>     15      0.00001075      0.00000226      0.0
 <Sep07-2020> <17:21:58>     16      0.00000500      0.00000121      0.0
 <Sep07-2020> <17:21:59>     17      0.00000094      0.00000015      0.0
 <Sep07-2020> <17:21:59>  SCF converged
 <Sep07-2020> <17:22:00>     18      0.00000152      0.00000034      0.0
 <Sep07-2020> <17:22:00>  >>>> TOTEN
 <Sep07-2020> <17:22:00>  >>>> POPAN
 <Sep07-2020> <17:22:00>  >>>> DEBYE
 <Sep07-2020> <17:22:00>  >>>> ENGRAD
 <Sep07-2020> <17:22:02>  Old frequency:    -17.75433, new:     40.87895
 <Sep07-2020> <17:22:02>  NOTE: Some frequencies have been re-calculated by numerical differentiation
 <Sep07-2020> <17:22:02>        Check the text output file for new values!
 <Sep07-2020> <17:22:02>  NORMAL TERMINATION
 <Sep07-2020> <17:22:02>  END
