
 *******************************************************************************
 *                                                                             *
 *  -------------------------------------                                      *
 *   Amsterdam Density Functional  (ADF)         2019                          *
 *  -------------------------------------                                      *
 *                                               r79301 2019-11-09             *
 *                                                                             *
 *                                                                             *
 *                            =====================                            *
 *                            |                   |                            *
 *                            |     D I R A C     |                            *
 *                            |                   |                            *
 *                            =====================                            *
 *                                                                             *
 *                                                                             *
 *   Online information and documentation:  https://www.scm.com/support/       *
 *   E-mail:  support@scm.com   info@scm.com                                   *
 *                                                                             *
 *   Scientific publications using ADF results must be properly referenced     *
 *   See the User Manuals (or the web site) for recommended citations          *
 *   The terms and conditions of the End User License Agreement apply to       *
 *   the use of ADF, https://www.scm.com/license-terms/                        *
 *                                                                             *
 **********************  x86_64_linux_intel / intelmpi  ************************
 
 
 
  
 DIRAC 2019  RunTime: Sep07-2020 17:41:08  Nodes: 1  Procs: 1

 Temporary files are created in /scratch/kid_0.239928569 (0x58465342)

1
 OXYGEN ATOM 1s CORE RELATIVISTIC, Point Nuc, A and c from li
 N J RN H ZN XION ANUC CLIGHT
 5000    4100.00000000197.36710137  8.00000000  0.00000000   15.994914  0.1370360E+03
  PH   PHI     EPS        DEL        DELRVR
  0.30  0.30     2500.00  0.00001000  0.00001000
 IDIRC  NC1  NDEBU NPRIN  IPUN IRCOR IWCOR
   1   300     0     0     0     0     1
   XALPHA      XLATTER      RNUC
  0.70000000  0.00000000  0.00000000 Point Charge
   XN   XL   XJ      XE          XZ      XDELL
  1.0  0.0  0.5      -5.000       2.000     0.00000
  2.0  0.0  0.5      -1.000       2.000     0.00000
  2.0  1.0  0.5      -1.000       2.000     0.00000
  2.0  1.0  1.5      -1.000       2.000     0.00000
 ICORP=  0  NPCL=  0  DEMP=0.00  PEPS=0.000000
 R(1)=  0.1000000E-08 D=  0.1005080E+01 RNUC=  0.0000000E+00
 converged at cycle   28  DENSITY AVERAGING    0.2400
  MAXIMUM ERROR IN R.V(R) IS   0.81125670E-05
 Q,EY,EV,EZ,ESUM,ETOT,RHO  0.800000E+01 -0.101247E+02 -0.114961E+03 -0.177573E+03 -0.405053E+02 -0.743427E+02  0.414766E-14


 DIRAC CALCULATION
1                    OXYGEN ATOM 1s CORE RELATIVISTIC, Point Nuc, A and c from libtc


 EXCHANGE COEFFICIENT=  0.7000000           TAIL CORRECTION=  0.           NUCLEAR RADIUS=  0.000E+00
0                       ORBITAL    N    L    J     ELECTRONS     EIGENVALUE                DELTA OF EIGENV.

                          1S1/2  1.0  0.0  0.5     2.000       -0.1880014E+02                 0.7264358E-06
                          2S1/2  2.0  0.0  0.5     2.000       -0.8412236E+00                 0.5932752E-05
                          2P1/2  2.0  1.0  0.5     2.000       -0.3063203E+00                 0.5998471E-05
                          2P3/2  2.0  1.0  1.5     2.000       -0.3049609E+00                 0.5986971E-05


                                        NUCLEAR CHARGE=    8.000000
                            INTEGRAL OF CHARGE DENSITY=    8.000000
                           SUM OF THE ORBITAL ENERGIES=    -40.5053
                                          TOTAL ENERGY=    -74.3427
                                        KINETIC ENERGY=     74.4552
                             NUCLEAR ATTRACTION ENERGY=   -177.5730
                             ELECTRON REPULSION ENERGY=     36.3686
                                       EXCHANGE ENERGY=     -7.5935

 *******************************************************************************

                             D I R A C   E X I T
 NORMAL TERMINATION



 =================
 Timing Statistics
 =================
  
 Total Used :                     CPU=        0.11      System=        0.00     Elapsed=        0.12

 Calls  Section                     ( Mean, Percentage )
 ---------------------------------------------------------------------------------------------------
     2  ><      ................      0.00    0.00             0.00    0.00             0.00    0.01
     1  EXIT PROCEDURE .........      0.11  100.00             0.00    0.00             0.12   99.99


 Currently Open Files (EXIT00)
 ====================

 Unit    Access Format  Status   Type       Ident (file)
 -------------------------------------------------------
   3      SEQ    FORM   TRANSP  NORMAL      LOGFILE
                                          ( logfile )
 
Create O   file=TZP-O.1s
XC
  GGA PBE
End
relativistic ZORA
Corepotentials t12.rel
End

 *******************************************************************************
 *                                                                             *
 *  -------------------------------------                                      *
 *   Amsterdam Density Functional  (ADF)         2019                          *
 *  -------------------------------------                                      *
 *                                               r79301 2019-11-09             *
 *                                                                             *
 *                                                                             *
 *                              =================                              *
 *                              |               |                              *
 *                              |     A D F     |                              *
 *                              |               |                              *
 *                              =================                              *
 *                                                                             *
 *                                                                             *
 *   Online information and documentation:  https://www.scm.com/support/       *
 *   E-mail:  support@scm.com   info@scm.com                                   *
 *                                                                             *
 *   Scientific publications using ADF results must be properly referenced     *
 *   See the User Manuals (or the web site) for recommended citations          *
 *   The terms and conditions of the End User License Agreement apply to       *
 *   the use of ADF, https://www.scm.com/license-terms/                        *
 *                                                                             *
 **********************  x86_64_linux_intel / intelmpi  ************************
 
 
 
  
 ADF 2019  RunTime: Sep07-2020 17:41:08  Nodes: 1  Procs: 1

 Temporary files are created in /scratch/kid_0.716357971 (0x58465342)

 Oxygen (TZP, 1s frozen)



 ===========================
 A T T A C H E D   F I L E S
 ===========================
  
 CREATE - Data File:    TZP-O.1s
                        Oxygen (TZP, 1s frozen)
 Core Potentials:
         file : t12.rel



 ===============================
 M O D E L   P A R A M E T E R S
 ===============================
  
 DENSITY FUNCTIONAL POTENTIAL (scf)
    LDA:                               PW92                                    == Not Default ==
    Gradient Corrections:              PBEc PBEx                               == Not Default ==

 SPIN  (restricted / unrestr.)
    Molecule:                          Restricted                               

 OTHER ASPECTS
    Relativistic Corrections:          scalar (ZORA,MAPA)                      == Not Default ==

    Nuclear Charge Density Model:      Point Charge Nuclei                      
    Core Treatment:                    Frozen Orbital(s)                        

    Hyperfine or Zeeman Interaction:   ---                                      



 =====================================
 S Y M M E T R Y ,   E L E C T R O N S
 =====================================
  
 Symmetry: ATOM

 Irreducible Representations, including subspecies
 -------------------------------------------------
 S
 P:x  P:y  P:z
 D:z2  D:x2-y2  D:xy  D:xz  D:yz
 F:z3  F:z  F:xyz  F:z2x  F:z2y  F:x  F:y


 Configuration of Valence Electrons
 ==================================

          Occupation Numbers
          -------------------------------------------------
 S        2
 P        4
 D        0
 F        0
          -------------------------------------------------

 Total:   6

 Net Charge: 0 (Nuclei minus Electrons)

 Preset values for MO occupations will be applied through SCF cycle no. 1000000
 Thereafter, the program will assign electrons to MOs that are spatially
 similar to the occupied MOs in a "reference" cycle ("KeepOrbitals").
 The reference cycle is always the PREVIOUS cycle: it will evolve with
 the SCF procedure.



 ================================
 (Slater-type)  F U N C T I O N S  ***  (Basis and Fit)  ***
 ================================
  

 Atom Type    1  (O)
 ==============

 Valence Basis Sets:   8
 -----------------------
   1 S    7.360000
   2 S    1.720000
   2 S    2.880000
   2 S    7.580000
   2 P    1.120000
   2 P    2.080000
   2 P    4.080000
   3 D    2.000000

 Frozen Core Shells
 ------------------
    S:  1


 BAS: List of all Elementary Cartesian Basis Functions
 =====================================================

 The numbering in the list below (to the right of the function characteristics) is referred
 to in print-outs of MO eigenvectors and Mulliken populations in the BAS representation
 (as contrasted to the SFO representation).

 Notes:
 1. The functions are characterized by a polynomial prefactor (powers of x,y,z and r) and
    an exponential decay factor alpha.
 2. Since the basis sets are specific for an atom TYPE, the individual functions occur on
    all atoms of that type.
 3. The word 'Core' in the left margin signals that it is a Core Function (CF) : not a
    degree of freedom in the valence set, but only used to ensure orthogonalization of
    the other valence basis functions on the frozen Core Orbitals.


 (power of) X  Y  Z  R     Alpha  on Atom
            ==========     =====     ==========

 O                                    1
                                  ---------------------------------------------------------------------------
    Core    0  0  0  0     7.360      1
            0  0  0  1     1.720      2
            0  0  0  1     2.880      3
            0  0  0  1     7.580      4
            1  0  0  0     1.120      5
            0  1  0  0     1.120      6
            0  0  1  0     1.120      7
            1  0  0  0     2.080      8
            0  1  0  0     2.080      9
            0  0  1  0     2.080     10
            1  0  0  0     4.080     11
            0  1  0  0     4.080     12
            0  0  1  0     4.080     13
            2  0  0  0     2.000     14
            1  1  0  0     2.000     15
            1  0  1  0     2.000     16
            0  2  0  0     2.000     17
            0  1  1  0     2.000     18
            0  0  2  0     2.000     19

 Total number of charge fitting functions (nprimf)        82
 Total number of Cartesian basis functions (naos)         19
 Total number of Cartesian core functions  (ncos)          1



 BAS: List of all Elementary Cartesian Basis Functions
 =====================================================

 The numbering in the list below (to the right of the function characteristics) is referred
 to in print-outs of MO eigenvectors and Mulliken populations in the BAS representation
 (as contrasted to the SFO representation).

 Notes:
 1. The functions are characterized by a polynomial prefactor (powers of x,y,z and r) and
    an exponential decay factor alpha.
 2. Since the basis sets are specific for an atom TYPE, the individual functions occur on
    all atoms of that type.
 3. The word 'Core' in the left margin signals that it is a Core Function (CF) : not a
    degree of freedom in the valence set, but only used to ensure orthogonalization of
    the other valence basis functions on the frozen Core Orbitals.


 (power of) X  Y  Z  R     Alpha  on Atom
            ==========     =====     ==========

 O                                    1
                                  ---------------------------------------------------------------------------
    Core    0  0  0  0     7.360      1
            0  0  0  1     1.720      2
            0  0  0  1     2.880      3
            0  0  0  1     7.580      4
            1  0  0  0     1.120      5
            0  1  0  0     1.120      6
            0  0  1  0     1.120      7
            1  0  0  0     2.080      8
            0  1  0  0     2.080      9
            0  0  1  0     2.080     10
            1  0  0  0     4.080     11
            0  1  0  0     4.080     12
            0  0  1  0     4.080     13
            2  0  0  0     2.000     14
            1  1  0  0     2.000     15
            1  0  1  0     2.000     16
            0  2  0  0     2.000     17
            0  1  1  0     2.000     18
            0  0  2  0     2.000     19
1
 ***************************************************************************************************



                                              ***********************
                                              *  T E C H N I C A L  *
                                              ***********************
  



 =============================================================
 P A R A L L E L I Z A T I O N  and  V E C T O R I Z A T I O N
 =============================================================
  
 Nr of parallel processes:                                1
 Maximum vector length in NumInt loops:                 128



 =====================
 S C F   U P D A T E S
 =====================
  
 Max. nr. of cycles:                               300
 Convergence criterion:                              0.0000000100
   secondary criterion:                              0.0000000100

 Mix parameter (when DIIS does not apply):           0.2000000000
 Special mix parameter for the first cycle:          1.0000000000
 Mixed ADIIS+SDIIS will be used                  
    Max number of expansion vectors:                10
    Pure ADIIS when Max([F,P]) is above              0.1000000000
    Pure SDIIS when Max([F,P]) is below              0.0010000000
 Automatic ElectronSmearing (in case of problematic SCF convergence) disabled



 =================
 P R E C I S I O N  ***  (General: NumInt, NeglectFunctionTails, ...)  ***
 =================
  

 NumInt:           Target precision:                12.0000000000
 -------           Initial precision:               10.0000000000
                   Min. precision (optimization):   10.0000000000

 Neglect Functions:          Basis functions:        0.1000000000E-13
 ------------------          Fit functions:          0.1000000000E-13



 ===========================
 L I N E A R   S C A L I N G
 ===========================
  

 Cut-off radii density fit:                        0.1000000000E-97
 Overlap cut-off criterion AO matrix elements:     0.1000000000E-97
 Cut-offs for Coulomb potential and fitted density:0.1000000000E-97
 Cut-off criterion for Coulomb multipole terms:    0.1000000000E-97
 Progressive Convergence parameter:                 0.000000000    
1
 ***************************************************************************************************



                                            ***************************
                                            *  C O M P U T A T I O N  *
                                            ***************************
  

 Number of elements of the density matrix on this node (used, total):       190       190



 ===========================================
 Numerical Integration : Fuzzy Cells (Becke)
 ===========================================
  
 Becke grid quality: VERYGOOD       
  
 Lebedev angular grid order:             min:  13 max:  41
 Nr. of radial points:                   min:  68 max:  68

 Total nr. of points:         68
 Nr. of blocks:                1
 Block length:                68
 Nr. of dummy points:          0


 Test of Precision of the Numerical Integration Grid
 ===================================================

 Integral of the Total Core Density:                   1.99999999865610
 Relative Error:                                      -6.720E-10



 ========================
 Density Fitting (zlmFit)
 ========================
  
 ZlmFit Fit Quality: VERYGOOD       
  
 Max L-expansion:                        min:   0 max:   0
 Nr. of radial interpolation points:     min: 140 max: 140



 =====
 S C F  ***  ScaSCF  ***
 =====
  

 CYCLE    1
 SCF Error: norm([F,P])=      0.000000000000, max([F,P])=      0.000000000000
 orbitals (Q,E):
 ---------------
 S :1...3            ( 2.00    -5.3654)  ( 0.00    -2.2073)  ( 0.00    23.6692)
 P :1...3            ( 4.00    -5.0045)  ( 0.00    -2.0150)  ( 0.00    -0.3846)
 D :1...1            ( 0.00    -2.0410)

 CYCLE    2
 SCF Error: norm([F,P])=      4.562993374873, max([F,P])=      2.528971113813
 orbitals (Q,E):
 ---------------
 S :1...2            ( 2.00    -0.1548)  ( 0.00     1.6948)
 P :1...2            ( 4.00     0.1773)  ( 0.00     0.9552)
 D :1...1            ( 0.00     1.4649)

 CYCLE    3
  SDIIS (wt  0.000):  0.3378  0.6622
 A-DIIS (wt  1.000):  0.4814  0.5186
  DIIS coefficients:  0.4814  0.5186
 SCF Error: norm([F,P])=      2.723155250500, max([F,P])=      1.798667049295
 orbitals (Q,E):
 ---------------
 S :1...2            ( 2.00    -1.1093)  ( 0.00     0.7549)
 P :1...2            ( 4.00    -0.5518)  ( 0.00     0.2590)
 D :1...1            ( 0.00     0.8910)

 CYCLE    4
  SDIIS (wt  0.000):  0.0919  0.9081
 A-DIIS (wt  1.000):  0.0000  1.0000
  DIIS coefficients:  0.0000  1.0000
 SCF Error: norm([F,P])=      0.289027138405, max([F,P])=      0.130648623511
 orbitals (Q,E):
 ---------------
 S :1...2            ( 2.00    -0.7707)  ( 0.00     0.9912)
 P :1...2            ( 4.00    -0.2284)  ( 0.00     0.4046)
 D :1...1            ( 0.00     1.1288)

 CYCLE    5
  SDIIS (wt  0.000):  0.0260  0.6740  0.3001
 A-DIIS (wt  1.000):  0.0000  0.5764  0.4236
  DIIS coefficients:  0.0000  0.5764  0.4236
 SCF Error: norm([F,P])=      0.416615089426, max([F,P])=      0.232643669786
 orbitals (Q,E):
 ---------------
 S :1...2            ( 2.00    -0.8764)  ( 0.00     0.9107)
 P :1...2            ( 4.00    -0.3280)  ( 0.00     0.3557)
 D :1...1            ( 0.00     1.0703)

 CYCLE    6
  SDIIS (wt  0.942):  0.0005  0.0237 -0.0203  0.9960
 A-DIIS (wt  0.058):  0.0000  0.0000  0.0000  1.0000
  DIIS coefficients:  0.0005  0.0224 -0.0191  0.9962
 SCF Error: norm([F,P])=      0.013723272809, max([F,P])=      0.006719036732
 orbitals (Q,E):
 ---------------
 S :1...2            ( 2.00    -0.8830)  ( 0.00     0.9058)
 P :1...2            ( 4.00    -0.3343)  ( 0.00     0.3521)
 D :1...1            ( 0.00     1.0657)

 CYCLE    7
  SDIIS (wt  1.000): -0.0000  0.0016  0.0023  0.0424  0.9537
  DIIS coefficients: -0.0000  0.0016  0.0023  0.0424  0.9537
 SCF Error: norm([F,P])=      0.001103645928, max([F,P])=      0.000634039171
 orbitals (Q,E):
 ---------------
 S :1...2            ( 2.00    -0.8827)  ( 0.00     0.9060)
 P :1...2            ( 4.00    -0.3340)  ( 0.00     0.3523)
 D :1...1            ( 0.00     1.0659)

 CYCLE    8
  SDIIS (wt  1.000): -0.0000 -0.0001  0.0000 -0.0032  0.0268  0.9765
  DIIS coefficients: -0.0000 -0.0001  0.0000 -0.0032  0.0268  0.9765
 SCF Error: norm([F,P])=      0.000035919805, max([F,P])=      0.000020263970
 orbitals (Q,E):
 ---------------
 S :1...2            ( 2.00    -0.8827)  ( 0.00     0.9060)
 P :1...2            ( 4.00    -0.3340)  ( 0.00     0.3522)
 D :1...1            ( 0.00     1.0659)

 CYCLE    9
  SDIIS (wt  1.000): -0.0000  0.0008  0.0188  0.9804
  DIIS coefficients: -0.0000  0.0008  0.0188  0.9804
 SCF Error: norm([F,P])=      0.000000326384, max([F,P])=      0.000000183924
 orbitals (Q,E):
 ---------------
 S :1...2            ( 2.00    -0.8827)  ( 0.00     0.9060)
 P :1...2            ( 4.00    -0.3340)  ( 0.00     0.3522)
 D :1...1            ( 0.00     1.0659)

 CYCLE   10
  SDIIS (wt  1.000):  0.0000  0.0003  0.9996
  DIIS coefficients:  0.0000  0.0003  0.9996
 SCF Error: norm([F,P])=      0.000000000559, max([F,P])=      0.000000000306
 orbitals (Q,E):
 ---------------
 S :1...2            ( 2.00    -0.8827)  ( 0.00     0.9060)
 P :1...2            ( 4.00    -0.3340)  ( 0.00     0.3522)
 D :1...1            ( 0.00     1.0659)

 SCF CONVERGED

 CYCLE   11
1
 ***************************************************************************************************



                                                *******************
                                                *  R E S U L T S  *
                                                *******************
  
 *** Using FIT density in Focky
  SDIIS (wt  1.000): -0.0000  0.0143  0.9857
  DIIS coefficients: -0.0000  0.0143  0.9857
 SCF Error: norm([F,P])=      0.000000000010, max([F,P])=      0.000000000006

 Scaled ZORA Orbital Energies, per Irrep and Spin:
 =================================================
                        Occup              E (au)              E (eV)       Diff (eV) with prev. cycle
                        -----      --------------------        ------       --------------------------
 S
               1        2.000     -0.88272313143209E+00       -24.020              -9.28E-11
               2        0.000      0.90601345014671E+00        24.654
               3        0.000      0.29578810816937E+02       804.880
 P
               1        4.000     -0.33400585272070E+00        -9.089              -8.94E-11
               2        0.000      0.35224911365993E+00         9.585
               3        0.000      0.38342927625315E+01       104.336
 D
               1        0.000      0.10658965783141E+01        29.005


 Partially Occupied:
               1 P                -0.33400585272070E+00
  
 HOMO :        1 S                -0.88272313143209E+00
 LUMO :        2 P                 0.35224911365993E+00
  


 Orbital Energies, all Irreps
 ========================================

 Irrep        no.  (spin)   Occup              E (au)                E (eV)
 ---------------------------------------------------------------------------
 S             1             2.00       -0.88272313143209E+00       -24.0201
 P             1             4.00       -0.33400585272070E+00        -9.0888
 P             2             0.00        0.35224911365993E+00         9.5852
 S             2             0.00        0.90601345014671E+00        24.6539
 D             1             0.00        0.10658965783141E+01        29.0045
 P             3             0.00        0.38342927625315E+01       104.3364
 S             3             0.00        0.29578810816937E+02       804.8804


 Scaled ZORA Orbital Energies of the Core Orbitals:
 ==================================================

 (Note that the atoms are grouped by atomtype, see the labels, and may hence NOT be in input order)

 AtomType  Orbital  Atom                   E (au)                        E (eV)
 --------  -------  ----           --------------------        ----------------
 O           1S        1          -0.18925919758629E+02                -515.000



 =======================================
 M U L L I K E N   P O P U L A T I O N S
 =======================================
  
 The survey below gives for each atom:
 a) the total charge (Z minus electrons)
 b) the net spin polarization (nr of electrons spin-A minus spin-B)
 c) for each spin the atomic electron valence density (integrated) per L-value.

 Atom              Charge    Spin density          S         P         D         F
 ----              ------    ------------       ------    ------    ------    ------
 1 O              -0.0000                       2.0000    4.0000    0.0000    0.0000

 Populations of individual BAS functions
 ----------------------------------------
 1 O            0.0005  0.9226  1.0966 -0.0196  0.3346  0.3346  0.3346  0.7512  0.7512  0.7512
                0.2476  0.2476  0.2476  0.0000  0.0000  0.0000  0.0000  0.0000  0.0000

 Gross Charges per Atom (Z minus electrons)
 ==========================================
            -0.0000
 Net Total: -0.00000000



 =======================================================================
 Electrostatic potential at the Nuclei due to electrons and other nuclei
 =======================================================================
  
         Atom                  Potential
         ----                  ---------
     1)   O                  22.20265662
 
 
 ========================
 No memory problems found
 ========================
 
 Maximum number of active allocate calls:         389
 
 *******************************************************************************

                             A D F   E X I T
 NORMAL TERMINATION



 =================
 Timing Statistics
 =================
  
 Total Used :                     CPU=        0.44      System=        0.02     Elapsed=        0.51

 Calls  Section                     ( Mean, Percentage )
 ---------------------------------------------------------------------------------------------------
     3  ><      ................      0.00    0.91             0.00    0.00             0.00    0.81
     1  INIT    ................      0.07   15.45             0.01   33.33             0.09   17.83
     1  GEOMET  ................      0.02    3.64             0.00    0.00             0.02    4.80
     1  INPUTA  ................      0.00    0.91             0.00    0.00             0.00    0.69
     1  MAINSY  ................      0.01    1.82             0.00   16.67             0.01    2.87
     1  SYMFIT  ................      0.00    0.00             0.00    0.00             0.00    0.35
     1  CORORT  ................      0.00    0.00             0.00   16.67             0.00    0.30
     1  SYMORB  ................      0.00    0.00             0.00    0.00             0.00    0.18
     1  CLSMAT  ................      0.00    0.91             0.00    0.00             0.01    1.18
     1  ORTHON  ................      0.00    0.91             0.00    0.00             0.01    1.07
     1  GENPT   ................      0.01    2.73             0.00   16.67             0.02    3.03
     1  PTBAS   ................      0.00    0.91             0.00    0.00             0.01    1.13
    11  FOCKY   ................      0.02   56.36             0.00   16.67             0.02   50.35
    11  FOCKTR  ................      0.00    2.73             0.00    0.00             0.00    1.52
    11  SDIIS   ................      0.00    4.55             0.00    0.00             0.00    6.15
     1  COREPS  ................      0.02    3.64             0.00    0.00             0.02    3.57
     1  POPAN   ................      0.00    0.91             0.00    0.00             0.01    1.10
     1  DEBYE   ................      0.00    0.91             0.00    0.00             0.00    0.39
     1  EXIT PROCEDURE .........      0.01    2.73             0.00    0.00             0.01    2.69


 Currently Open Files (EXIT00)
 ====================

 Unit    Access Format  Status   Type       Ident (file)
 -------------------------------------------------------
   3      SEQ    FORM   TRANSP  NORMAL      LOGFILE
                                          ( logfile )

 ***************************************************************************************************
 (LOGFILE)
 <Sep07-2020> <17:41:08>  DIRAC 2019  RunTime: Sep07-2020 17:41:08  Nodes: 1  Procs: 1
 <Sep07-2020> <17:41:08>  NORMAL TERMINATION
 <Sep07-2020> <17:41:08>  END
 <Sep07-2020> <17:41:08>  ADF 2019  RunTime: Sep07-2020 17:41:08  Nodes: 1  Procs: 1
 <Sep07-2020> <17:41:08>  Oxygen (TZP, 1s frozen)
 <Sep07-2020> <17:41:08>  RunType   : CREATE
 <Sep07-2020> <17:41:08>  Net Charge: 0 (Nuclei minus Electrons)
 <Sep07-2020> <17:41:08>  Symmetry  : ATOM
  Coordinates
    Atom         X           Y           Z   (Angstrom)
    1.O         0.000000    0.000000    0.000000
 <Sep07-2020> <17:41:08>  >>>> CORORT
 <Sep07-2020> <17:41:08>  >>>> CLSMAT
 <Sep07-2020> <17:41:08>  >>>> ORTHON
 <Sep07-2020> <17:41:08>  >>>> GENPT
 <Sep07-2020> <17:41:08>  Block Length=  68
 <Sep07-2020> <17:41:08>  >>>> PTBAS
 <Sep07-2020> <17:41:08>  >>>> CYCLE
 <Sep07-2020> <17:41:08>              |Error|         MaxErr       Wt(A-DIIS)
 <Sep07-2020> <17:41:08>      1      0.00000000      0.00000000
 <Sep07-2020> <17:41:08>      2      4.56299337      2.52897111
 <Sep07-2020> <17:41:08>      3      2.72315525      1.79866705    100.0
 <Sep07-2020> <17:41:08>      4      0.28902714      0.13064862    100.0
 <Sep07-2020> <17:41:08>      5      0.41661509      0.23264367    100.0
 <Sep07-2020> <17:41:08>      6      0.01372327      0.00671904      5.8
 <Sep07-2020> <17:41:08>      7      0.00110365      0.00063404      0.0
 <Sep07-2020> <17:41:08>      8      0.00003592      0.00002026      0.0
 <Sep07-2020> <17:41:08>      9      0.00000033      0.00000018      0.0
 <Sep07-2020> <17:41:08>     10      0.00000000      0.00000000      0.0
 <Sep07-2020> <17:41:08>  SCF converged
 <Sep07-2020> <17:41:08>     11      0.00000000      0.00000000      0.0
 <Sep07-2020> <17:41:09>  >>>> POPAN
 <Sep07-2020> <17:41:09>  >>>> DEBYE
 <Sep07-2020> <17:41:09>  NORMAL TERMINATION
 <Sep07-2020> <17:41:09>  END

 *******************************************************************************
 *                                                                             *
 *  -------------------------------------                                      *
 *   Amsterdam Density Functional  (ADF)         2019                          *
 *  -------------------------------------                                      *
 *                                               r79301 2019-11-09             *
 *                                                                             *
 *                                                                             *
 *                            =====================                            *
 *                            |                   |                            *
 *                            |     D I R A C     |                            *
 *                            |                   |                            *
 *                            =====================                            *
 *                                                                             *
 *                                                                             *
 *   Online information and documentation:  https://www.scm.com/support/       *
 *   E-mail:  support@scm.com   info@scm.com                                   *
 *                                                                             *
 *   Scientific publications using ADF results must be properly referenced     *
 *   See the User Manuals (or the web site) for recommended citations          *
 *   The terms and conditions of the End User License Agreement apply to       *
 *   the use of ADF, https://www.scm.com/license-terms/                        *
 *                                                                             *
 **********************  x86_64_linux_intel / intelmpi  ************************
 
 
 
  
 DIRAC 2019  RunTime: Sep07-2020 17:41:09  Nodes: 1  Procs: 1

 Temporary files are created in /scratch/kid_0.1421156377 (0x58465342)

1
 TUNGSTEN ATOM 4d CORE RELATIVISTIC, Point Nuc, A and c from 
 N J RN H ZN XION ANUC CLIGHT
 5000   22100.00000000197.36710137 74.00000000  0.00000000  183.950932  0.1370360E+03
  PH   PHI     EPS        DEL        DELRVR
  0.30  0.30     2500.00  0.00001000  0.00001000
 IDIRC  NC1  NDEBU NPRIN  IPUN IRCOR IWCOR
   1   300     0     0     0     0    14
   XALPHA      XLATTER      RNUC
  0.70000000  0.00000000  0.00000000 Point Charge
   XN   XL   XJ      XE          XZ      XDELL
  1.0  0.0  0.5   -2600.000       2.000     0.00000
  2.0  0.0  0.5    -425.000       2.000     0.00000
  2.0  1.0  0.5    -425.000       2.000     0.00000
  2.0  1.0  1.5    -425.000       4.000     0.00000
  3.0  0.0  0.5    -100.000       2.000     0.00000
  3.0  1.0  0.5    -100.000       2.000     0.00000
  3.0  1.0  1.5    -100.000       4.000     0.00000
  3.0  2.0  1.5     -80.000       4.000     0.00000
  3.0  2.0  2.5     -80.000       6.000     0.00000
  4.0  0.0  0.5     -22.000       2.000     0.00000
  4.0  1.0  0.5     -20.000       2.000     0.00000
  4.0  1.0  1.5     -20.000       4.000     0.00000
  4.0  2.0  1.5     -11.000       4.000     0.00000
  4.0  2.0  2.5     -11.000       6.000     0.00000
  4.0  3.0  2.5      -1.000       6.000     0.00000
  4.0  3.0  3.5      -1.000       8.000     0.00000
  5.0  0.0  0.5      -3.000       2.000     0.00000
  5.0  1.0  0.5      -2.200       2.000     0.00000
  5.0  1.0  1.5      -2.200       4.000     0.00000
  5.0  2.0  1.5      -0.500       4.000     0.00000
  5.0  2.0  2.5      -0.500       0.000     0.00000
  6.0  0.0  0.5      -0.200       2.000     0.00000
 ICORP=  0  NPCL=  0  DEMP=0.00  PEPS=0.000000
 R(1)=  0.1000000E-08 D=  0.1005080E+01 RNUC=  0.0000000E+00
 converged at cycle   63  DENSITY AVERAGING    0.1536
  MAXIMUM ERROR IN R.V(R) IS   0.78838062E-05
 Q,EY,EV,EZ,ESUM,ETOT,RHO  0.740000E+02 -0.431420E+03 -0.281568E+05 -0.403919E+05 -0.993885E+04 -0.161643E+05  0.726391E-09


 DIRAC CALCULATION
1                    TUNGSTEN ATOM 4d CORE RELATIVISTIC, Point Nuc, A and c from libtc


 EXCHANGE COEFFICIENT=  0.7000000           TAIL CORRECTION=  0.           NUCLEAR RADIUS=  0.000E+00
0                       ORBITAL    N    L    J     ELECTRONS     EIGENVALUE                DELTA OF EIGENV.

                          1S1/2  1.0  0.0  0.5     2.000       -0.2549514E+04                 0.5980248E-04
                          2S1/2  2.0  0.0  0.5     2.000       -0.4399118E+03                 0.5052420E-04
                          2P1/2  2.0  1.0  0.5     2.000       -0.4208427E+03                 0.5265062E-04
                          2P3/2  2.0  1.0  1.5     4.000       -0.3711192E+03                 0.5139441E-04
                          3S1/2  3.0  0.0  0.5     2.000       -0.1012881E+03                 0.3437035E-04
                          3P1/2  3.0  1.0  0.5     2.000       -0.9277148E+02                 0.3553128E-04
                          3P3/2  3.0  1.0  1.5     4.000       -0.8201733E+02                 0.3404634E-04
                          3D3/2  3.0  2.0  1.5     4.000       -0.6762803E+02                 0.3680712E-04
                          3D5/2  3.0  2.0  2.5     6.000       -0.6528623E+02                 0.3629511E-04
                          4S1/2  4.0  0.0  0.5     2.000       -0.2084139E+02                 0.1939427E-04
                          4P1/2  4.0  1.0  0.5     2.000       -0.1730737E+02                 0.1933978E-04
                          4P3/2  4.0  1.0  1.5     4.000       -0.1480597E+02                 0.1810922E-04
                          4D3/2  4.0  2.0  1.5     4.000       -0.8989319E+01                 0.1779394E-04
                          4D5/2  4.0  2.0  2.5     6.000       -0.8528007E+01                 0.1741170E-04
                          4F5/2  4.0  3.0  2.5     6.000       -0.1237480E+01                 0.1544089E-04
                          4F7/2  4.0  3.0  3.5     8.000       -0.1154634E+01                 0.1522033E-04
                          5S1/2  5.0  0.0  0.5     2.000       -0.2863514E+01                 0.7979521E-05
                          5P1/2  5.0  1.0  0.5     2.000       -0.1813289E+01                 0.7246225E-05
                          5P3/2  5.0  1.0  1.5     4.000       -0.1448762E+01                 0.6602120E-05
                          5D3/2  5.0  2.0  1.5     4.000       -0.1486933E+00                 0.3973088E-05
                          5D5/2  5.0  2.0  2.5     0.000       -0.1223153E+00                 0.3735081E-05
                          6S1/2  6.0  0.0  0.5     2.000       -0.1847434E+00                 0.1808440E-05


                                        NUCLEAR CHARGE=   74.000000
                            INTEGRAL OF CHARGE DENSITY=   74.000000
                           SUM OF THE ORBITAL ENERGIES=  -9938.8529
                                          TOTAL ENERGY= -16164.2530
                                        KINETIC ENERGY=  18217.9700
                             NUCLEAR ATTRACTION ENERGY= -40391.9132
                             ELECTRON REPULSION ENERGY=   6333.2551
                                       EXCHANGE ENERGY=   -323.5649

 *******************************************************************************

                             D I R A C   E X I T
 NORMAL TERMINATION



 =================
 Timing Statistics
 =================
  
 Total Used :                     CPU=        0.67      System=        0.01     Elapsed=        0.70

 Calls  Section                     ( Mean, Percentage )
 ---------------------------------------------------------------------------------------------------
     2  ><      ................      0.00    0.00             0.00    0.00             0.00    0.00
     1  EXIT PROCEDURE .........      0.67  100.00             0.01  100.00             0.70  100.00


 Currently Open Files (EXIT00)
 ====================

 Unit    Access Format  Status   Type       Ident (file)
 -------------------------------------------------------
   3      SEQ    FORM   TRANSP  NORMAL      LOGFILE
                                          ( logfile )
 
Create W   file=TZP-W.4d
XC
  GGA PBE
End
relativistic ZORA
Corepotentials t12.rel
End

 *******************************************************************************
 *                                                                             *
 *  -------------------------------------                                      *
 *   Amsterdam Density Functional  (ADF)         2019                          *
 *  -------------------------------------                                      *
 *                                               r79301 2019-11-09             *
 *                                                                             *
 *                                                                             *
 *                              =================                              *
 *                              |               |                              *
 *                              |     A D F     |                              *
 *                              |               |                              *
 *                              =================                              *
 *                                                                             *
 *                                                                             *
 *   Online information and documentation:  https://www.scm.com/support/       *
 *   E-mail:  support@scm.com   info@scm.com                                   *
 *                                                                             *
 *   Scientific publications using ADF results must be properly referenced     *
 *   See the User Manuals (or the web site) for recommended citations          *
 *   The terms and conditions of the End User License Agreement apply to       *
 *   the use of ADF, https://www.scm.com/license-terms/                        *
 *                                                                             *
 **********************  x86_64_linux_intel / intelmpi  ************************
 
 
 
  
 ADF 2019  RunTime: Sep07-2020 17:41:09  Nodes: 1  Procs: 1

 Temporary files are created in /scratch/kid_0.1817645448 (0x58465342)

 Tungsten (TZP, 4d frozen)



 ===========================
 A T T A C H E D   F I L E S
 ===========================
  
 CREATE - Data File:    TZP-W.4d
                        Tungsten (TZP, 4d frozen)
 Core Potentials:
         file : t12.rel



 ===============================
 M O D E L   P A R A M E T E R S
 ===============================
  
 DENSITY FUNCTIONAL POTENTIAL (scf)
    LDA:                               PW92                                    == Not Default ==
    Gradient Corrections:              PBEc PBEx                               == Not Default ==

 SPIN  (restricted / unrestr.)
    Molecule:                          Restricted                               

 OTHER ASPECTS
    Relativistic Corrections:          scalar (ZORA,MAPA)                      == Not Default ==

    Nuclear Charge Density Model:      Point Charge Nuclei                      
    Core Treatment:                    Frozen Orbital(s)                        

    Hyperfine or Zeeman Interaction:   ---                                      



 =====================================
 S Y M M E T R Y ,   E L E C T R O N S
 =====================================
  
 Symmetry: ATOM

 Irreducible Representations, including subspecies
 -------------------------------------------------
 S
 P:x  P:y  P:z
 D:z2  D:x2-y2  D:xy  D:xz  D:yz
 F:z3  F:z  F:xyz  F:z2x  F:z2y  F:x  F:y


 Configuration of Valence Electrons
 ==================================

          Occupation Numbers
          -------------------------------------------------
 S        2*2
 P        6
 D        4
 F        14
          -------------------------------------------------

 Total:   28

 Net Charge: 0 (Nuclei minus Electrons)

 Preset values for MO occupations will be applied through SCF cycle no. 1000000
 Thereafter, the program will assign electrons to MOs that are spatially
 similar to the occupied MOs in a "reference" cycle ("KeepOrbitals").
 The reference cycle is always the PREVIOUS cycle: it will evolve with
 the SCF procedure.



 ================================
 (Slater-type)  F U N C T I O N S  ***  (Basis and Fit)  ***
 ================================
  

 Atom Type    1  (W)
 ==============

 Valence Basis Sets:  25
 -----------------------
   1 S   52.000000
   2 S   33.250000
   3 S   19.100000
   4 S   11.650000
   2 P   36.850000
   3 P   16.500000
   4 P   11.550000
   3 D   20.100000
   4 D   10.300000
   1 S  163.900000
   5 S    6.050000
   5 S    3.950000
   6 S    2.850000
   6 S    1.800000
   6 S    1.140000
   5 P    5.900000
   5 P    4.000000
   5 P    2.700000
   5 D    4.150000
   5 D    2.250000
   5 D    1.200000
   4 F   13.550000
   4 F    7.050000
   4 F    3.550000
   6 P    1.800000

 Frozen Core Shells
 ------------------
    S:  4
    P:  3
    D:  2


 BAS: List of all Elementary Cartesian Basis Functions
 =====================================================

 The numbering in the list below (to the right of the function characteristics) is referred
 to in print-outs of MO eigenvectors and Mulliken populations in the BAS representation
 (as contrasted to the SFO representation).

 Notes:
 1. The functions are characterized by a polynomial prefactor (powers of x,y,z and r) and
    an exponential decay factor alpha.
 2. Since the basis sets are specific for an atom TYPE, the individual functions occur on
    all atoms of that type.
 3. The word 'Core' in the left margin signals that it is a Core Function (CF) : not a
    degree of freedom in the valence set, but only used to ensure orthogonalization of
    the other valence basis functions on the frozen Core Orbitals.


 (power of) X  Y  Z  R     Alpha  on Atom
            ==========     =====     ==========

 W                                    1
                                  ---------------------------------------------------------------------------
    Core    0  0  0  0    52.000      1
    Core    0  0  0  1    33.250      2
    Core    0  0  0  2    19.100      3
    Core    0  0  0  3    11.650      4
    Core    1  0  0  0    36.850      5
    Core    0  1  0  0    36.850      6
    Core    0  0  1  0    36.850      7
    Core    1  0  0  1    16.500      8
    Core    0  1  0  1    16.500      9
    Core    0  0  1  1    16.500     10
    Core    1  0  0  2    11.550     11
    Core    0  1  0  2    11.550     12
    Core    0  0  1  2    11.550     13
    Core    2  0  0  0    20.100     14
    Core    1  1  0  0    20.100     15
    Core    1  0  1  0    20.100     16
    Core    0  2  0  0    20.100     17
    Core    0  1  1  0    20.100     18
    Core    0  0  2  0    20.100     19
    Core    2  0  0  1    10.300     20
    Core    1  1  0  1    10.300     21
    Core    1  0  1  1    10.300     22
    Core    0  2  0  1    10.300     23
    Core    0  1  1  1    10.300     24
    Core    0  0  2  1    10.300     25
            0  0  0  0   163.900     26
            0  0  0  4     6.050     27
            0  0  0  4     3.950     28
            0  0  0  5     2.850     29
            0  0  0  5     1.800     30
            0  0  0  5     1.140     31
            1  0  0  3     5.900     32
            0  1  0  3     5.900     33
            0  0  1  3     5.900     34
            1  0  0  3     4.000     35
            0  1  0  3     4.000     36
            0  0  1  3     4.000     37
            1  0  0  3     2.700     38
            0  1  0  3     2.700     39
            0  0  1  3     2.700     40
            2  0  0  2     4.150     41
            1  1  0  2     4.150     42
            1  0  1  2     4.150     43
            0  2  0  2     4.150     44
            0  1  1  2     4.150     45
            0  0  2  2     4.150     46
            2  0  0  2     2.250     47
            1  1  0  2     2.250     48
            1  0  1  2     2.250     49
            0  2  0  2     2.250     50
            0  1  1  2     2.250     51
            0  0  2  2     2.250     52
            2  0  0  2     1.200     53
            1  1  0  2     1.200     54
            1  0  1  2     1.200     55
            0  2  0  2     1.200     56
            0  1  1  2     1.200     57
            0  0  2  2     1.200     58
            3  0  0  0    13.550     59
            2  1  0  0    13.550     60
            2  0  1  0    13.550     61
            1  2  0  0    13.550     62
            1  1  1  0    13.550     63
            1  0  2  0    13.550     64
            0  3  0  0    13.550     65
            0  2  1  0    13.550     66
            0  1  2  0    13.550     67
            0  0  3  0    13.550     68
            3  0  0  0     7.050     69
            2  1  0  0     7.050     70
            2  0  1  0     7.050     71
            1  2  0  0     7.050     72
            1  1  1  0     7.050     73
            1  0  2  0     7.050     74
            0  3  0  0     7.050     75
            0  2  1  0     7.050     76
            0  1  2  0     7.050     77
            0  0  3  0     7.050     78
            3  0  0  0     3.550     79
            2  1  0  0     3.550     80
            2  0  1  0     3.550     81
            1  2  0  0     3.550     82
            1  1  1  0     3.550     83
            1  0  2  0     3.550     84
            0  3  0  0     3.550     85
            0  2  1  0     3.550     86
            0  1  2  0     3.550     87
            0  0  3  0     3.550     88
            1  0  0  4     1.800     89
            0  1  0  4     1.800     90
            0  0  1  4     1.800     91

 Total number of charge fitting functions (nprimf)       329
 Total number of Cartesian basis functions (naos)         91
 Total number of Cartesian core functions  (ncos)         25



 BAS: List of all Elementary Cartesian Basis Functions
 =====================================================

 The numbering in the list below (to the right of the function characteristics) is referred
 to in print-outs of MO eigenvectors and Mulliken populations in the BAS representation
 (as contrasted to the SFO representation).

 Notes:
 1. The functions are characterized by a polynomial prefactor (powers of x,y,z and r) and
    an exponential decay factor alpha.
 2. Since the basis sets are specific for an atom TYPE, the individual functions occur on
    all atoms of that type.
 3. The word 'Core' in the left margin signals that it is a Core Function (CF) : not a
    degree of freedom in the valence set, but only used to ensure orthogonalization of
    the other valence basis functions on the frozen Core Orbitals.


 (power of) X  Y  Z  R     Alpha  on Atom
            ==========     =====     ==========

 W                                    1
                                  ---------------------------------------------------------------------------
    Core    0  0  0  0    52.000      1
    Core    0  0  0  1    33.250      2
    Core    0  0  0  2    19.100      3
    Core    0  0  0  3    11.650      4
    Core    1  0  0  0    36.850      5
    Core    0  1  0  0    36.850      6
    Core    0  0  1  0    36.850      7
    Core    1  0  0  1    16.500      8
    Core    0  1  0  1    16.500      9
    Core    0  0  1  1    16.500     10
    Core    1  0  0  2    11.550     11
    Core    0  1  0  2    11.550     12
    Core    0  0  1  2    11.550     13
    Core    2  0  0  0    20.100     14
    Core    1  1  0  0    20.100     15
    Core    1  0  1  0    20.100     16
    Core    0  2  0  0    20.100     17
    Core    0  1  1  0    20.100     18
    Core    0  0  2  0    20.100     19
    Core    2  0  0  1    10.300     20
    Core    1  1  0  1    10.300     21
    Core    1  0  1  1    10.300     22
    Core    0  2  0  1    10.300     23
    Core    0  1  1  1    10.300     24
    Core    0  0  2  1    10.300     25
            0  0  0  0   163.900     26
            0  0  0  4     6.050     27
            0  0  0  4     3.950     28
            0  0  0  5     2.850     29
            0  0  0  5     1.800     30
            0  0  0  5     1.140     31
            1  0  0  3     5.900     32
            0  1  0  3     5.900     33
            0  0  1  3     5.900     34
            1  0  0  3     4.000     35
            0  1  0  3     4.000     36
            0  0  1  3     4.000     37
            1  0  0  3     2.700     38
            0  1  0  3     2.700     39
            0  0  1  3     2.700     40
            2  0  0  2     4.150     41
            1  1  0  2     4.150     42
            1  0  1  2     4.150     43
            0  2  0  2     4.150     44
            0  1  1  2     4.150     45
            0  0  2  2     4.150     46
            2  0  0  2     2.250     47
            1  1  0  2     2.250     48
            1  0  1  2     2.250     49
            0  2  0  2     2.250     50
            0  1  1  2     2.250     51
            0  0  2  2     2.250     52
            2  0  0  2     1.200     53
            1  1  0  2     1.200     54
            1  0  1  2     1.200     55
            0  2  0  2     1.200     56
            0  1  1  2     1.200     57
            0  0  2  2     1.200     58
            3  0  0  0    13.550     59
            2  1  0  0    13.550     60
            2  0  1  0    13.550     61
            1  2  0  0    13.550     62
            1  1  1  0    13.550     63
            1  0  2  0    13.550     64
            0  3  0  0    13.550     65
            0  2  1  0    13.550     66
            0  1  2  0    13.550     67
            0  0  3  0    13.550     68
            3  0  0  0     7.050     69
            2  1  0  0     7.050     70
            2  0  1  0     7.050     71
            1  2  0  0     7.050     72
            1  1  1  0     7.050     73
            1  0  2  0     7.050     74
            0  3  0  0     7.050     75
            0  2  1  0     7.050     76
            0  1  2  0     7.050     77
            0  0  3  0     7.050     78
            3  0  0  0     3.550     79
            2  1  0  0     3.550     80
            2  0  1  0     3.550     81
            1  2  0  0     3.550     82
            1  1  1  0     3.550     83
            1  0  2  0     3.550     84
            0  3  0  0     3.550     85
            0  2  1  0     3.550     86
            0  1  2  0     3.550     87
            0  0  3  0     3.550     88
            1  0  0  4     1.800     89
            0  1  0  4     1.800     90
            0  0  1  4     1.800     91
1
 ***************************************************************************************************



                                              ***********************
                                              *  T E C H N I C A L  *
                                              ***********************
  



 =============================================================
 P A R A L L E L I Z A T I O N  and  V E C T O R I Z A T I O N
 =============================================================
  
 Nr of parallel processes:                                1
 Maximum vector length in NumInt loops:                 128



 =====================
 S C F   U P D A T E S
 =====================
  
 Max. nr. of cycles:                               300
 Convergence criterion:                              0.0000000100
   secondary criterion:                              0.0000000100

 Mix parameter (when DIIS does not apply):           0.2000000000
 Special mix parameter for the first cycle:          1.0000000000
 Mixed ADIIS+SDIIS will be used                  
    Max number of expansion vectors:                10
    Pure ADIIS when Max([F,P]) is above              0.1000000000
    Pure SDIIS when Max([F,P]) is below              0.0010000000
 Automatic ElectronSmearing (in case of problematic SCF convergence) disabled



 =================
 P R E C I S I O N  ***  (General: NumInt, NeglectFunctionTails, ...)  ***
 =================
  

 NumInt:           Target precision:                12.0000000000
 -------           Initial precision:               10.0000000000
                   Min. precision (optimization):   10.0000000000

 Neglect Functions:          Basis functions:        0.1000000000E-13
 ------------------          Fit functions:          0.1000000000E-13



 ===========================
 L I N E A R   S C A L I N G
 ===========================
  

 Cut-off radii density fit:                        0.1000000000E-97
 Overlap cut-off criterion AO matrix elements:     0.1000000000E-97
 Cut-offs for Coulomb potential and fitted density:0.1000000000E-97
 Cut-off criterion for Coulomb multipole terms:    0.1000000000E-97
 Progressive Convergence parameter:                 0.000000000    
1
 ***************************************************************************************************



                                            ***************************
                                            *  C O M P U T A T I O N  *
                                            ***************************
  

 Number of elements of the density matrix on this node (used, total):      4186      4186



 ===========================================
 Numerical Integration : Fuzzy Cells (Becke)
 ===========================================
  
 Becke grid quality: VERYGOOD       
  
 Lebedev angular grid order:             min:  13 max:  41
 Nr. of radial points:                   min: 145 max: 145

 Total nr. of points:        145
 Nr. of blocks:                2
 Block length:                73
 Nr. of dummy points:          1


 Test of Precision of the Numerical Integration Grid
 ===================================================

 Integral of the Total Core Density:                  46.00000002324492
 Relative Error:                                       5.053E-10



 ========================
 Density Fitting (zlmFit)
 ========================
  
 ZlmFit Fit Quality: VERYGOOD       
  
 Max L-expansion:                        min:   0 max:   0
 Nr. of radial interpolation points:     min: 340 max: 340



 =====
 S C F  ***  ScaSCF  ***
 =====
  

 CYCLE    1
 SCF Error: norm([F,P])=      0.000000000000, max([F,P])=      0.000000000000
 orbitals (Q,E):
 ---------------
 S :1...6            ( 2.00   -28.2058)  ( 2.00   -16.4725)  ( 0.00   -10.3738)  ( 0.00    -6.6321)
                     ( 0.00    -4.0998)  ( 0.00  3013.3587)
 P :1...4            ( 6.00   -26.2502)  ( 0.00   -15.6809)  ( 0.00   -10.1451)  ( 0.00    -6.3840)
 D :1...3            ( 4.00   -20.3774)  ( 0.00   -10.3968)  ( 0.00    -5.4917)
 F :1...3            (14.00   -35.0607)  ( 0.00   -19.0417)  ( 0.00   -12.0152)

 CYCLE    2
  SDIIS (wt  0.000):  1.0000  0.0000
 A-DIIS (wt  1.000):  0.1993  0.8007
  DIIS coefficients:  0.1993  0.8007
 SCF Error: norm([F,P])=     40.907082825658, max([F,P])=      9.977402120499
 orbitals (Q,E):
 ---------------
 S :1...3            ( 2.00    -4.6780)  ( 2.00    -1.8638)  ( 0.00    -0.9989)
 P :1...2            ( 6.00    -3.4915)  ( 0.00    -1.5122)
 D :1...2            ( 4.00    -2.0619)  ( 0.00    -1.0071)
 F :1...2            (14.00    -1.8107)  ( 0.00     1.1317)

 CYCLE    3
  SDIIS (wt  0.000):  0.3180  0.6820
 A-DIIS (wt  1.000):  0.2378  0.7622
  DIIS coefficients:  0.2378  0.7622
 SCF Error: norm([F,P])=     22.137766809988, max([F,P])=      7.956550621467
 orbitals (Q,E):
 ---------------
 S :1...3            ( 2.00    -3.1832)  ( 2.00    -0.0954)  ( 0.00     0.0950)
 P :1...2            ( 6.00    -1.7164)  ( 0.00     0.0796)
 D :1...2            ( 4.00    -0.0523)  ( 0.00     0.2166)
 F :1...2            (14.00    -2.9552)  ( 0.00     2.1680)

 CYCLE    4
  SDIIS (wt  0.000): -0.1470  0.2408  0.9063
 A-DIIS (wt  1.000):  0.0000  0.1960  0.8040
  DIIS coefficients:  0.0000  0.1960  0.8040
 SCF Error: norm([F,P])=     11.319258211122, max([F,P])=      3.388378774288
 orbitals (Q,E):
 ---------------
 S :1...3            ( 2.00    -2.5382)  ( 2.00    -0.1744)  ( 0.00     0.0568)
 P :1...2            ( 6.00    -1.3109)  ( 0.00     0.0041)
 D :1...2            ( 4.00    -0.0593)  ( 0.00     0.1840)
 F :1...2            (14.00    -0.4483)  ( 0.00     2.6543)

 CYCLE    5
  SDIIS (wt  0.000): -0.0453 -0.0639  0.4150  0.6941
 A-DIIS (wt  1.000):  0.0000  0.0000  0.2956  0.7044
  DIIS coefficients:  0.0000  0.0000  0.2956  0.7044
 SCF Error: norm([F,P])=      6.468352795626, max([F,P])=      2.222974642389
 orbitals (Q,E):
 ---------------
 S :1...3            ( 2.00    -3.2723)  ( 2.00    -0.3187)  ( 0.00     0.0098)
 P :1...2            ( 6.00    -1.9237)  ( 0.00    -0.1006)
 D :1...2            ( 4.00    -0.3847)  ( 0.00     0.0899)
 F :1...2            (14.00    -1.8198)  ( 0.00     1.9560)

 CYCLE    6
  SDIIS (wt  0.000): -0.0085 -0.0399  0.0839  0.4322  0.5323
 A-DIIS (wt  1.000):  0.0000  0.0000  0.0000  0.2109  0.7891
  DIIS coefficients:  0.0000  0.0000  0.0000  0.2109  0.7891
 SCF Error: norm([F,P])=      2.472496419763, max([F,P])=      0.770355067313
 orbitals (Q,E):
 ---------------
 S :1...3            ( 2.00    -2.6997)  ( 2.00    -0.1670)  ( 0.00     0.0637)
 P :1...2            ( 6.00    -1.4226)  ( 0.00     0.0144)
 D :1...2            ( 4.00    -0.0756)  ( 0.00     0.1818)
 F :1...2            (14.00    -0.9561)  ( 0.00     2.4590)

 CYCLE    7
  SDIIS (wt  0.000): -0.0027  0.0194 -0.0224 -0.1264  0.3712  0.7611
 A-DIIS (wt  1.000):  0.0000  0.0000  0.0000  0.0000  0.2987  0.7013
  DIIS coefficients:  0.0000  0.0000  0.0000  0.0000  0.2987  0.7013
 SCF Error: norm([F,P])=      1.326888571519, max([F,P])=      0.409877416513
 orbitals (Q,E):
 ---------------
 S :1...3            ( 2.00    -2.9765)  ( 2.00    -0.2356)  ( 0.00     0.0368)
 P :1...2            ( 6.00    -1.6652)  ( 0.00    -0.0389)
 D :1...2            ( 4.00    -0.2166)  ( 0.00     0.1330)
 F :1...2            (14.00    -1.3505)  ( 0.00     2.2150)

 CYCLE    8
  SDIIS (wt  0.000): -0.0001 -0.0032  0.0101  0.0022 -0.1365  0.1637  0.9637
 A-DIIS (wt  1.000):  0.0000  0.0000  0.0000  0.0000  0.0000  0.1133  0.8867
  DIIS coefficients:  0.0000  0.0000  0.0000  0.0000  0.0000  0.1133  0.8867
 SCF Error: norm([F,P])=      0.417265552811, max([F,P])=      0.123103983384
 orbitals (Q,E):
 ---------------
 S :1...3            ( 2.00    -2.8269)  ( 2.00    -0.1934)  ( 0.00     0.0514)
 P :1...2            ( 6.00    -1.5319)  ( 0.00    -0.0062)
 D :1...2            ( 4.00    -0.1328)  ( 0.00     0.1598)
 F :1...2            (14.00    -1.1429)  ( 0.00     2.3483)

 CYCLE    9
  SDIIS (wt  0.000): -0.0000 -0.0005  0.0032 -0.0055 -0.0134 -0.0769  0.3889  0.7044
 A-DIIS (wt  1.000):  0.0000  0.0000  0.0000  0.0000  0.0000  0.0000  0.4605  0.5395
  DIIS coefficients:  0.0000  0.0000  0.0000  0.0000  0.0000  0.0000  0.4605  0.5395
 SCF Error: norm([F,P])=      0.436344656895, max([F,P])=      0.135977974745
 orbitals (Q,E):
 ---------------
 S :1...3            ( 2.00    -2.8921)  ( 2.00    -0.2089)  ( 0.00     0.0455)
 P :1...2            ( 6.00    -1.5884)  ( 0.00    -0.0182)
 D :1...2            ( 4.00    -0.1653)  ( 0.00     0.1491)
 F :1...2            (14.00    -1.2444)  ( 0.00     2.2903)

 CYCLE   10
  SDIIS (wt  0.791): -0.0000 -0.0000 -0.0008  0.0050  0.0002 -0.0572  0.0662  0.2518  0.7349
 A-DIIS (wt  0.209):  0.0000  0.0000  0.0000  0.0000  0.0000  0.0000  0.0000  0.0000  1.0000
  DIIS coefficients: -0.0000 -0.0000 -0.0006  0.0039  0.0002 -0.0453  0.0524  0.1992  0.7903
 SCF Error: norm([F,P])=      0.064290018174, max([F,P])=      0.021683563602
 orbitals (Q,E):
 ---------------
 S :1...3            ( 2.00    -2.8892)  ( 2.00    -0.2088)  ( 0.00     0.0453)
 P :1...2            ( 6.00    -1.5864)  ( 0.00    -0.0182)
 D :1...2            ( 4.00    -0.1648)  ( 0.00     0.1492)
 F :1...2            (14.00    -1.2344)  ( 0.00     2.2932)

 CYCLE   11
  SDIIS (wt  0.943):  0.0000  0.0000  0.0003 -0.0019 -0.0002  0.0169 -0.0071 -0.0713  1.0633
 A-DIIS (wt  0.057):  0.0000  0.0000  0.0000  0.0000  0.0000  0.0000  0.0000  0.0000  1.0000
  DIIS coefficients:  0.0000  0.0000  0.0003 -0.0018 -0.0002  0.0159 -0.0067 -0.0673  1.0597
 SCF Error: norm([F,P])=      0.019862243149, max([F,P])=      0.006614525832
 orbitals (Q,E):
 ---------------
 S :1...3            ( 2.00    -2.8906)  ( 2.00    -0.2091)  ( 0.00     0.0452)
 P :1...2            ( 6.00    -1.5875)  ( 0.00    -0.0184)
 D :1...2            ( 4.00    -0.1654)  ( 0.00     0.1490)
 F :1...2            (14.00    -1.2376)  ( 0.00     2.2919)

 CYCLE   12
  SDIIS (wt  1.000):  0.0000 -0.0000  0.0001  0.0002 -0.0010 -0.0025  0.0027  1.0005
  DIIS coefficients:  0.0000 -0.0000  0.0001  0.0002 -0.0010 -0.0025  0.0027  1.0005
 SCF Error: norm([F,P])=      0.001704368638, max([F,P])=      0.000557703294
 orbitals (Q,E):
 ---------------
 S :1...3            ( 2.00    -2.8904)  ( 2.00    -0.2090)  ( 0.00     0.0452)
 P :1...2            ( 6.00    -1.5874)  ( 0.00    -0.0184)
 D :1...2            ( 4.00    -0.1653)  ( 0.00     0.1490)
 F :1...2            (14.00    -1.2373)  ( 0.00     2.2920)

 CYCLE   13
  SDIIS (wt  1.000): -0.0000 -0.0000 -0.0000 -0.0001  0.0001 -0.0012  0.0054  0.1443  0.8513
  DIIS coefficients: -0.0000 -0.0000 -0.0000 -0.0001  0.0001 -0.0012  0.0054  0.1443  0.8513
 SCF Error: norm([F,P])=      0.000011644128, max([F,P])=      0.000003087302
 orbitals (Q,E):
 ---------------
 S :1...3            ( 2.00    -2.8904)  ( 2.00    -0.2090)  ( 0.00     0.0452)
 P :1...2            ( 6.00    -1.5874)  ( 0.00    -0.0184)
 D :1...2            ( 4.00    -0.1653)  ( 0.00     0.1490)
 F :1...2            (14.00    -1.2373)  ( 0.00     2.2920)

 CYCLE   14
  SDIIS (wt  1.000): -0.0000 -0.0001 -0.0006 -0.0016  1.0022
  DIIS coefficients: -0.0000 -0.0001 -0.0006 -0.0016  1.0022
 SCF Error: norm([F,P])=      0.000000013756, max([F,P])=      0.000000003650
 orbitals (Q,E):
 ---------------
 S :1...3            ( 2.00    -2.8904)  ( 2.00    -0.2090)  ( 0.00     0.0452)
 P :1...2            ( 6.00    -1.5874)  ( 0.00    -0.0184)
 D :1...2            ( 4.00    -0.1653)  ( 0.00     0.1490)
 F :1...2            (14.00    -1.2373)  ( 0.00     2.2920)

 SCF CONVERGED

 CYCLE   15
1
 ***************************************************************************************************



                                                *******************
                                                *  R E S U L T S  *
                                                *******************
  
 *** Using FIT density in Focky
  SDIIS (wt  1.000): -0.0000 -0.0000 -0.0330  1.0330
  DIIS coefficients: -0.0000 -0.0000 -0.0330  1.0330
 SCF Error: norm([F,P])=      0.000000001904, max([F,P])=      0.000000000603

 Scaled ZORA Orbital Energies, per Irrep and Spin:
 =================================================
                        Occup              E (au)              E (eV)       Diff (eV) with prev. cycle
                        -----      --------------------        ------       --------------------------
 S
               1        2.000     -0.28904146058127E+01       -78.652               1.69E-08
               2        2.000     -0.20903700188629E+00        -5.688               1.07E-08
               3        0.000      0.45235059600390E-01         1.231
               4        0.000      0.56065479131102E+00        15.256
               5        0.000      0.33274541694695E+01        90.545
               6        0.000      0.30455860934223E+04     82874.614
 P
               1        6.000     -0.15873724268739E+01       -43.195               1.66E-08
               2        0.000     -0.18381804002204E-01        -0.500
               3        0.000      0.75931517673518E+00        20.662
               4        0.000      0.46642512103918E+01       126.921
 D
               1        4.000     -0.16528259673378E+00        -4.498               1.44E-08
               2        0.000      0.14901440684398E+00         4.055
               3        0.000      0.12244232958062E+01        33.318
 F
               1       14.000     -0.12372769632872E+01       -33.668               2.06E-08
               2        0.000      0.22920435821192E+01        62.370
               3        0.000      0.17401159156906E+02       473.510


 Partially Occupied:
               1 D                -0.16528259673378E+00
  
 HOMO :        2 S                -0.20903700188629E+00
 LUMO :        2 P                -0.18381804002204E-01
  


 Orbital Energies, all Irreps
 ========================================

 Irrep        no.  (spin)   Occup              E (au)                E (eV)
 ---------------------------------------------------------------------------
 S             1             2.00       -0.28904146058127E+01       -78.6522
 P             1             6.00       -0.15873724268739E+01       -43.1946
 F             1            14.00       -0.12372769632872E+01       -33.6680
 S             2             2.00       -0.20903700188629E+00        -5.6882
 D             1             4.00       -0.16528259673378E+00        -4.4976
 P             2             0.00       -0.18381804002204E-01        -0.5002
 S             3             0.00        0.45235059600390E-01         1.2309
 D             2             0.00        0.14901440684398E+00         4.0549
 S             4             0.00        0.56065479131102E+00        15.2562
 P             3             0.00        0.75931517673518E+00        20.6620
 D             3             0.00        0.12244232958062E+01        33.3183
 F             2             0.00        0.22920435821192E+01        62.3697
 S             5             0.00        0.33274541694695E+01        90.5446
 P             4             0.00        0.46642512103918E+01       126.9207
 F             3             0.00        0.17401159156906E+02       473.5096
 S             6             0.00        0.30455860934223E+04     82874.6143


 Scaled ZORA Orbital Energies of the Core Orbitals:
 ==================================================

 (Note that the atoms are grouped by atomtype, see the labels, and may hence NOT be in input order)

 AtomType  Orbital  Atom                   E (au)                        E (eV)
 --------  -------  ----           --------------------        ----------------
 W           1S        1          -0.25482138824004E+04              -69340.428
             2S        1          -0.43960984780021E+03              -11962.393
             3S        1          -0.10127263228126E+03               -2755.769
             4S        1          -0.20907119428712E+02                -568.912
             2P        1          -0.38417169137868E+03              -10453.844
             3P        1          -0.84864891065853E+02               -2309.291
             4P        1          -0.15541477299623E+02                -422.905
             3D        1          -0.66165082684733E+02               -1800.444
             4D        1          -0.87737511763508E+01                -238.746



 =======================================
 M U L L I K E N   P O P U L A T I O N S
 =======================================
  
 The survey below gives for each atom:
 a) the total charge (Z minus electrons)
 b) the net spin polarization (nr of electrons spin-A minus spin-B)
 c) for each spin the atomic electron valence density (integrated) per L-value.

 Atom              Charge    Spin density          S         P         D         F
 ----              ------    ------------       ------    ------    ------    ------
 1 W              -0.0000                       4.0000    6.0000    4.0000   14.0000

 Populations of individual BAS functions
 ----------------------------------------
 1 W           -0.0024 -0.0016  0.0017  0.0821  0.0004  0.0004  0.0004 -0.0190 -0.0190 -0.0190
                0.1070  0.1070  0.1070  0.0007  0.0011  0.0011  0.0007  0.0011  0.0007  0.0102
                0.0153  0.0153  0.0102  0.0153  0.0102  0.0002  1.3184  0.6637  0.7095  1.0512
                0.1771  0.5899  0.5899  0.5899  1.2256  1.2256  1.2256  0.0879  0.0879  0.0879
                0.2040  0.3059  0.3059  0.2040  0.3059  0.2040  0.2699  0.4048  0.4048  0.2699
                0.4048  0.2699  0.0486  0.0728  0.0728  0.0486  0.0728  0.0486  0.2159  0.4319
                0.4319  0.4319  0.5399  0.4319  0.2159  0.4319  0.4319  0.2159  0.4698  0.9397
                0.9397  0.9397  1.1746  0.9397  0.4698  0.9397  0.9397  0.4698  0.1142  0.2284
                0.2284  0.2284  0.2855  0.2284  0.1142  0.2284  0.2284  0.1142  0.0081  0.0081
                0.0081

 Gross Charges per Atom (Z minus electrons)
 ==========================================
            -0.0000
 Net Total: -0.00000000



 =======================================================================
 Electrostatic potential at the Nuclei due to electrons and other nuclei
 =======================================================================
  
         Atom                  Potential
         ----                  ---------
     1)   W                 545.46052106
 
 
 ========================
 No memory problems found
 ========================
 
 Maximum number of active allocate calls:         487
 
 *******************************************************************************

                             A D F   E X I T
 NORMAL TERMINATION



 =================
 Timing Statistics
 =================
  
 Total Used :                     CPU=        1.23      System=        0.04     Elapsed=        1.33

 Calls  Section                     ( Mean, Percentage )
 ---------------------------------------------------------------------------------------------------
     3  ><      ................      0.00    0.00             0.00    0.00             0.00    0.34
     1  INIT    ................      0.07    5.52             0.01   22.22             0.08    6.24
     1  GEOMET  ................      0.02    1.30             0.00   11.11             0.03    1.90
     1  INPUTA  ................      0.00    0.32             0.00    0.00             0.00    0.29
     1  MAINSY  ................      0.02    1.62             0.00    0.00             0.02    1.60
     1  SYMFIT  ................      0.00    0.00             0.00    0.00             0.00    0.13
     1  CORORT  ................      0.00    0.32             0.00    0.00             0.00    0.15
     1  SYMORB  ................      0.00    0.00             0.00    0.00             0.00    0.08
     1  CLSMAT  ................      0.01    0.65             0.00    0.00             0.01    0.54
     1  ORTHON  ................      0.00    0.32             0.00    0.00             0.01    0.47
     1  GENPT   ................      0.03    2.27             0.00    0.00             0.03    2.03
     1  PTBAS   ................      0.00    0.32             0.00    0.00             0.01    0.57
    15  FOCKY   ................      0.06   76.30             0.00   55.56             0.07   74.56
    15  FOCKTR  ................      0.00    1.30             0.00    0.00             0.00    1.01
    15  SDIIS   ................      0.00    3.25             0.00    0.00             0.00    3.42
     1  COREPS  ................      0.06    4.87             0.00    0.00             0.06    4.67
     1  POPAN   ................      0.00    0.32             0.00    0.00             0.01    0.51
     1  DEBYE   ................      0.00    0.32             0.00    0.00             0.00    0.19
     1  EXIT PROCEDURE .........      0.01    0.97             0.00   11.11             0.02    1.29


 Currently Open Files (EXIT00)
 ====================

 Unit    Access Format  Status   Type       Ident (file)
 -------------------------------------------------------
   3      SEQ    FORM   TRANSP  NORMAL      LOGFILE
                                          ( logfile )

 ***************************************************************************************************
 (LOGFILE)
 <Sep07-2020> <17:41:08>  DIRAC 2019  RunTime: Sep07-2020 17:41:08  Nodes: 1  Procs: 1
 <Sep07-2020> <17:41:08>  NORMAL TERMINATION
 <Sep07-2020> <17:41:08>  END
 <Sep07-2020> <17:41:08>  ADF 2019  RunTime: Sep07-2020 17:41:08  Nodes: 1  Procs: 1
 <Sep07-2020> <17:41:08>  Oxygen (TZP, 1s frozen)
 <Sep07-2020> <17:41:08>  RunType   : CREATE
 <Sep07-2020> <17:41:08>  Net Charge: 0 (Nuclei minus Electrons)
 <Sep07-2020> <17:41:08>  Symmetry  : ATOM
  Coordinates
    Atom         X           Y           Z   (Angstrom)
    1.O         0.000000    0.000000    0.000000
 <Sep07-2020> <17:41:08>  >>>> CORORT
 <Sep07-2020> <17:41:08>  >>>> CLSMAT
 <Sep07-2020> <17:41:08>  >>>> ORTHON
 <Sep07-2020> <17:41:08>  >>>> GENPT
 <Sep07-2020> <17:41:08>  Block Length=  68
 <Sep07-2020> <17:41:08>  >>>> PTBAS
 <Sep07-2020> <17:41:08>  >>>> CYCLE
 <Sep07-2020> <17:41:08>              |Error|         MaxErr       Wt(A-DIIS)
 <Sep07-2020> <17:41:08>      1      0.00000000      0.00000000
 <Sep07-2020> <17:41:08>      2      4.56299337      2.52897111
 <Sep07-2020> <17:41:08>      3      2.72315525      1.79866705    100.0
 <Sep07-2020> <17:41:08>      4      0.28902714      0.13064862    100.0
 <Sep07-2020> <17:41:08>      5      0.41661509      0.23264367    100.0
 <Sep07-2020> <17:41:08>      6      0.01372327      0.00671904      5.8
 <Sep07-2020> <17:41:08>      7      0.00110365      0.00063404      0.0
 <Sep07-2020> <17:41:08>      8      0.00003592      0.00002026      0.0
 <Sep07-2020> <17:41:08>      9      0.00000033      0.00000018      0.0
 <Sep07-2020> <17:41:08>     10      0.00000000      0.00000000      0.0
 <Sep07-2020> <17:41:08>  SCF converged
 <Sep07-2020> <17:41:08>     11      0.00000000      0.00000000      0.0
 <Sep07-2020> <17:41:09>  >>>> POPAN
 <Sep07-2020> <17:41:09>  >>>> DEBYE
 <Sep07-2020> <17:41:09>  NORMAL TERMINATION
 <Sep07-2020> <17:41:09>  END
 <Sep07-2020> <17:41:09>  DIRAC 2019  RunTime: Sep07-2020 17:41:09  Nodes: 1  Procs: 1
 <Sep07-2020> <17:41:09>  NORMAL TERMINATION
 <Sep07-2020> <17:41:09>  END
 <Sep07-2020> <17:41:09>  ADF 2019  RunTime: Sep07-2020 17:41:09  Nodes: 1  Procs: 1
 <Sep07-2020> <17:41:09>  Tungsten (TZP, 4d frozen)
 <Sep07-2020> <17:41:09>  RunType   : CREATE
 <Sep07-2020> <17:41:09>  Net Charge: 0 (Nuclei minus Electrons)
 <Sep07-2020> <17:41:09>  Symmetry  : ATOM
  Coordinates
    Atom         X           Y           Z   (Angstrom)
    1.W         0.000000    0.000000    0.000000
 <Sep07-2020> <17:41:09>  >>>> CORORT
 <Sep07-2020> <17:41:10>  >>>> CLSMAT
 <Sep07-2020> <17:41:10>  >>>> ORTHON
 <Sep07-2020> <17:41:10>  >>>> GENPT
 <Sep07-2020> <17:41:10>  Block Length=  73
 <Sep07-2020> <17:41:10>  >>>> PTBAS
 <Sep07-2020> <17:41:10>  >>>> CYCLE
 <Sep07-2020> <17:41:10>              |Error|         MaxErr       Wt(A-DIIS)
 <Sep07-2020> <17:41:10>      1      0.00000000      0.00000000
 <Sep07-2020> <17:41:10>      2     40.90708283      9.97740212    100.0
 <Sep07-2020> <17:41:10>      3     22.13776681      7.95655062    100.0
 <Sep07-2020> <17:41:10>      4     11.31925821      3.38837877    100.0
 <Sep07-2020> <17:41:10>      5      6.46835280      2.22297464    100.0
 <Sep07-2020> <17:41:10>      6      2.47249642      0.77035507    100.0
 <Sep07-2020> <17:41:10>      7      1.32688857      0.40987742    100.0
 <Sep07-2020> <17:41:10>      8      0.41726555      0.12310398    100.0
 <Sep07-2020> <17:41:10>      9      0.43634466      0.13597797    100.0
 <Sep07-2020> <17:41:10>     10      0.06429002      0.02168356     20.9
 <Sep07-2020> <17:41:10>     11      0.01986224      0.00661453      5.7
 <Sep07-2020> <17:41:10>     12      0.00170437      0.00055770      0.0
 <Sep07-2020> <17:41:10>     13      0.00001164      0.00000309      0.0
 <Sep07-2020> <17:41:11>     14      0.00000001      0.00000000      0.0
 <Sep07-2020> <17:41:11>  SCF converged
 <Sep07-2020> <17:41:11>     15      0.00000000      0.00000000      0.0
 <Sep07-2020> <17:41:11>  >>>> POPAN
 <Sep07-2020> <17:41:11>  >>>> DEBYE
 <Sep07-2020> <17:41:11>  NORMAL TERMINATION
 <Sep07-2020> <17:41:11>  END


 Parallel Execution: Process Information
 ==============================================================================
 Rank   Node Name                              NodeID   MyNodeRank  NodeMaster
 ==============================================================================


May use up to 61376MB of RAM as shared memory on node 0
 
AnalyticalFreq
end

NumericalQuality Good

QTAIM
    Enabled Yes
End

Relativistic Scalar ZORA

SOLVATION
  Surf Delley
  Solv name=Water cav0=0.0 cav1=0.0067639
  Charged method=CONJ
  C-Mat POT
  SCF VAR ALL
  CSMRSP
  Radii
    H=1.30
    O=1.72
    W=1.992
  SubEnd
end

ScanFreq -1000 0

XC
  GGA PBE
end

atoms
      1         W      3.218332      1.919763     11.893272
      2         W      3.972703      5.308429     10.662938
      3         W      3.903418      8.241544     12.806977
      4         O      3.814606      5.535406      8.935939
      5         O      5.671478      5.120395     11.008510
      6         O      2.420703      0.771925     10.806738
      7         O      4.912850      1.442854     12.068186
      8         O      3.284825      6.833769     11.541628
      9         O      5.401320      8.981964     12.223944
     10         O      4.207889      7.544631     14.405025
     11         O      2.662770      9.495805     12.954355
[...]
 <Sep07-2020> <18:13:44>  SCF converged
 <Sep07-2020> <18:13:45>     17      0.00000214      0.00000023      0.0
 <Sep07-2020> <18:13:46>  >>>> TOTEN
 <Sep07-2020> <18:13:46>  >>>> POPAN
 <Sep07-2020> <18:13:46>  >>>> DEBYE
 <Sep07-2020> <18:13:46>  >>>> ENGRAD
 <Sep07-2020> <18:13:50>  Geometry symmetry displacement    4 out of   10
  Coordinates in Geometry Cycle 16
    Atom         X           Y           Z   (Angstrom)
    1.W         3.108221    1.898020   11.879686
    2.W         4.130619    5.239571   10.697040
    3.W         3.923957    8.309848   12.812097
    4.O         3.868747    5.539606    9.001510
    5.O         5.830782    4.943464   10.906598
    6.O         2.394012    0.825505   10.672997
    7.O         4.729278    1.314558   12.255746
    8.O         3.624759    6.759937   11.661728
    9.O         4.969410    9.483198   12.010178
   10.O         4.689190    7.826178   14.326384
   11.O         2.381628    9.084419   13.181996
   12.O         3.144984    3.731340   11.200199
   13.O         2.129133    1.824925   13.346588
 <Sep07-2020> <18:13:50>  >>>> CORORT
 <Sep07-2020> <18:13:50>  >>>> CLSMAT
 <Sep07-2020> <18:13:50>  >>>> ORTHON
 <Sep07-2020> <18:13:50>  >>>> GENPT
 <Sep07-2020> <18:13:50>  Block Length= 128
 <Sep07-2020> <18:13:50>  >>>> PTBAS
 <Sep07-2020> <18:13:51>  combining surface points...
 <Sep07-2020> <18:13:51>  combining surface points...
 <Sep07-2020> <18:13:51>  combining surface points...
 <Sep07-2020> <18:13:51>  >>>> CYCLE
 <Sep07-2020> <18:13:54>              |Error|         MaxErr       Wt(A-DIIS)
 <Sep07-2020> <18:13:54>      1      0.11909364      0.03303443
 <Sep07-2020> <18:13:56>      2      0.39593707      0.05696131    100.0
 <Sep07-2020> <18:13:58>      3      0.11697995      0.01331833    100.0
 <Sep07-2020> <18:14:00>      4      0.04414954      0.00488339      3.9
 <Sep07-2020> <18:14:01>      5      0.06576623      0.01550478    100.0
 <Sep07-2020> <18:14:03>      6      0.15096818      0.03589033    100.0
 <Sep07-2020> <18:14:05>      7      0.04308042      0.00919128      8.3
 <Sep07-2020> <18:14:07>      8      0.00575434      0.00104897      0.0
 <Sep07-2020> <18:14:08>      9      0.00349735      0.00077637      0.0
 <Sep07-2020> <18:14:10>     10      0.00080019      0.00016286      0.0
 <Sep07-2020> <18:14:11>     11      0.00040527      0.00006237      0.0
 <Sep07-2020> <18:14:13>     12      0.00006478      0.00000691      0.0
 <Sep07-2020> <18:14:14>     13      0.00007190      0.00000825      0.0
 <Sep07-2020> <18:14:16>     14      0.00002877      0.00000528      0.0
 <Sep07-2020> <18:14:17>     15      0.00000883      0.00000185      0.0
 <Sep07-2020> <18:14:19>     16      0.00000402      0.00000069      0.0
 <Sep07-2020> <18:14:19>  SCF converged
 <Sep07-2020> <18:14:20>     17      0.00000214      0.00000023      0.0
 <Sep07-2020> <18:14:21>  >>>> TOTEN
 <Sep07-2020> <18:14:21>  >>>> POPAN
 <Sep07-2020> <18:14:21>  >>>> DEBYE
 <Sep07-2020> <18:14:21>  >>>> ENGRAD
 <Sep07-2020> <18:14:25>  Old frequency:    -29.85039, new:     57.68610
 <Sep07-2020> <18:14:25>  Geometry symmetry displacement    5 out of   10
  Coordinates in Geometry Cycle 16
    Atom         X           Y           Z   (Angstrom)
    1.W         3.108204    1.898058   11.879798
    2.W         4.130721    5.239435   10.696742
    3.W         3.923952    8.309939   12.812306
    4.O         3.867637    5.539855    9.001466
    5.O         5.830961    4.942795   10.904941
    6.O         2.394123    0.825550   10.673026
    7.O         4.729222    1.314595   12.256028
    8.O         3.626022    6.759695   11.662133
    9.O         4.969648    9.483412   12.010886
   10.O         4.688241    7.826779   14.327233
   11.O         2.381165    9.084190   13.180982
   12.O         3.145035    3.731394   11.200369
   13.O         2.128961    1.824961   13.346595
 <Sep07-2020> <18:14:25>  >>>> CORORT
 <Sep07-2020> <18:14:25>  >>>> CLSMAT
 <Sep07-2020> <18:14:25>  >>>> ORTHON
 <Sep07-2020> <18:14:25>  >>>> GENPT
 <Sep07-2020> <18:14:26>  Block Length= 128
 <Sep07-2020> <18:14:26>  >>>> PTBAS
 <Sep07-2020> <18:14:26>  combining surface points...
 <Sep07-2020> <18:14:26>  combining surface points...
 <Sep07-2020> <18:14:26>  combining surface points...
 <Sep07-2020> <18:14:26>  >>>> CYCLE
 <Sep07-2020> <18:14:30>              |Error|         MaxErr       Wt(A-DIIS)
 <Sep07-2020> <18:14:30>      1      0.10711225      0.02400434
 <Sep07-2020> <18:14:32>      2      0.39571914      0.05691027    100.0
 <Sep07-2020> <18:14:34>      3      0.11699618      0.01332146    100.0
 <Sep07-2020> <18:14:35>      4      0.04415610      0.00487564      3.9
 <Sep07-2020> <18:14:37>      5      0.06571349      0.01549812    100.0
 <Sep07-2020> <18:14:39>      6      0.15132244      0.03598755    100.0
 <Sep07-2020> <18:14:40>      7      0.04317817      0.00924007      8.3
 <Sep07-2020> <18:14:42>      8      0.00571198      0.00103413      0.0
 <Sep07-2020> <18:14:44>      9      0.00350392      0.00077193      0.0
 <Sep07-2020> <18:14:45>     10      0.00080134      0.00016242      0.0
 <Sep07-2020> <18:14:47>     11      0.00040433      0.00006213      0.0
 <Sep07-2020> <18:14:48>     12      0.00006472      0.00000689      0.0
 <Sep07-2020> <18:14:50>     13      0.00007197      0.00000805      0.0
 <Sep07-2020> <18:14:51>     14      0.00002898      0.00000539      0.0
 <Sep07-2020> <18:14:53>     15      0.00000879      0.00000182      0.0
 <Sep07-2020> <18:14:54>     16      0.00000404      0.00000070      0.0
 <Sep07-2020> <18:14:55>  SCF converged
 <Sep07-2020> <18:14:56>     17      0.00000214      0.00000023      0.0
 <Sep07-2020> <18:14:56>  >>>> TOTEN
 <Sep07-2020> <18:14:57>  >>>> POPAN
 <Sep07-2020> <18:14:57>  >>>> DEBYE
 <Sep07-2020> <18:14:57>  >>>> ENGRAD
 <Sep07-2020> <18:15:00>  Geometry symmetry displacement    6 out of   10
  Coordinates in Geometry Cycle 16
    Atom         X           Y           Z   (Angstrom)
    1.W         3.108206    1.897674   11.879462
    2.W         4.130553    5.239505   10.697433
    3.W         3.924055    8.310243   12.811994
    4.O         3.868205    5.539744    9.002011
    5.O         5.830776    4.943374   10.906477
    6.O         2.394252    0.825662   10.672176
    7.O         4.729220    1.314113   12.255559
    8.O         3.624920    6.759662   11.662540
    9.O         4.969278    9.483294   12.009342
   10.O         4.689527    7.827437   14.326435
   11.O         2.381680    9.084824   13.181685
   12.O         3.145023    3.731283   11.200792
   13.O         2.128854    1.823927   13.346154
 <Sep07-2020> <18:15:00>  >>>> CORORT
 <Sep07-2020> <18:15:01>  >>>> CLSMAT
 <Sep07-2020> <18:15:01>  >>>> ORTHON
 <Sep07-2020> <18:15:01>  >>>> GENPT
 <Sep07-2020> <18:15:01>  Block Length= 128
 <Sep07-2020> <18:15:01>  >>>> PTBAS
 <Sep07-2020> <18:15:02>  combining surface points...
 <Sep07-2020> <18:15:02>  combining surface points...
 <Sep07-2020> <18:15:02>  combining surface points...
 <Sep07-2020> <18:15:02>  >>>> CYCLE
 <Sep07-2020> <18:15:05>              |Error|         MaxErr       Wt(A-DIIS)
 <Sep07-2020> <18:15:05>      1      0.10616899      0.02185582
 <Sep07-2020> <18:15:07>      2      0.39577392      0.05694504    100.0
 <Sep07-2020> <18:15:09>      3      0.11714542      0.01336333    100.0
 <Sep07-2020> <18:15:10>      4      0.04430338      0.00492588      4.0
 <Sep07-2020> <18:15:12>      5      0.06578173      0.01550916    100.0
 <Sep07-2020> <18:15:14>      6      0.15173315      0.03608274    100.0
 <Sep07-2020> <18:15:16>      7      0.04353502      0.00927946      8.4
 <Sep07-2020> <18:15:17>      8      0.00579524      0.00105020      0.1
 <Sep07-2020> <18:15:19>      9      0.00349453      0.00077712      0.0
 <Sep07-2020> <18:15:20>     10      0.00079892      0.00016306      0.0
 <Sep07-2020> <18:15:22>     11      0.00040503      0.00006256      0.0
 <Sep07-2020> <18:15:24>     12      0.00006463      0.00000686      0.0
 <Sep07-2020> <18:15:25>     13      0.00007054      0.00000823      0.0
 <Sep07-2020> <18:15:27>     14      0.00002835      0.00000511      0.0
 <Sep07-2020> <18:15:28>     15      0.00000872      0.00000188      0.0
 <Sep07-2020> <18:15:29>     16      0.00000404      0.00000068      0.0
 <Sep07-2020> <18:15:30>  SCF converged
 <Sep07-2020> <18:15:31>     17      0.00000212      0.00000022      0.0
 <Sep07-2020> <18:15:31>  >>>> TOTEN
 <Sep07-2020> <18:15:32>  >>>> POPAN
 <Sep07-2020> <18:15:32>  >>>> DEBYE
 <Sep07-2020> <18:15:32>  >>>> ENGRAD
 <Sep07-2020> <18:15:36>  Old frequency:    -17.68209, new:     48.51531
 <Sep07-2020> <18:15:36>  Geometry symmetry displacement    7 out of   10
  Coordinates in Geometry Cycle 16
    Atom         X           Y           Z   (Angstrom)
    1.W         3.108234    1.897781   11.879602
    2.W         4.130655    5.239522   10.697155
    3.W         3.923956    8.310122   12.812114
    4.O         3.867955    5.539779    9.001791
    5.O         5.830918    4.943361   10.905839
    6.O         2.393189    0.825829   10.672907
    7.O         4.729291    1.313744   12.254774
    8.O         3.625264    6.759693   11.662353
    9.O         4.970129    9.482929   12.010341
   10.O         4.688109    7.827007   14.327123
   11.O         2.381521    9.085132   13.180659
   12.O         3.145226    3.731286   11.200665
   13.O         2.129769    1.824540   13.346913
 <Sep07-2020> <18:15:36>  >>>> CORORT
 <Sep07-2020> <18:15:36>  >>>> CLSMAT
 <Sep07-2020> <18:15:36>  >>>> ORTHON
 <Sep07-2020> <18:15:36>  >>>> GENPT
 <Sep07-2020> <18:15:36>  Block Length= 128
 <Sep07-2020> <18:15:36>  >>>> PTBAS
 <Sep07-2020> <18:15:37>  combining surface points...
 <Sep07-2020> <18:15:37>  combining surface points...
 <Sep07-2020> <18:15:37>  combining surface points...
 <Sep07-2020> <18:15:37>  >>>> CYCLE
 <Sep07-2020> <18:15:40>              |Error|         MaxErr       Wt(A-DIIS)
 <Sep07-2020> <18:15:40>      1      0.10836064      0.02395402
 <Sep07-2020> <18:15:42>      2      0.39577525      0.05693822    100.0
 <Sep07-2020> <18:15:44>      3      0.11697883      0.01332069    100.0
 <Sep07-2020> <18:15:46>      4      0.04414000      0.00487408      3.9
 <Sep07-2020> <18:15:47>      5      0.06572311      0.01549723    100.0
 <Sep07-2020> <18:15:49>      6      0.15117266      0.03594441    100.0
 <Sep07-2020> <18:15:51>      7      0.04311520      0.00922017      8.3
 <Sep07-2020> <18:15:52>      8      0.00571897      0.00103871      0.0
 <Sep07-2020> <18:15:54>      9      0.00350192      0.00077348      0.0
 <Sep07-2020> <18:15:56>     10      0.00080072      0.00016250      0.0
 <Sep07-2020> <18:15:57>     11      0.00040469      0.00006220      0.0
 <Sep07-2020> <18:15:59>     12      0.00006476      0.00000691      0.0
 <Sep07-2020> <18:16:00>     13      0.00007209      0.00000813      0.0
 <Sep07-2020> <18:16:02>     14      0.00002893      0.00000536      0.0
 <Sep07-2020> <18:16:03>     15      0.00000882      0.00000183      0.0
 <Sep07-2020> <18:16:05>     16      0.00000404      0.00000070      0.0
 <Sep07-2020> <18:16:05>  SCF converged
 <Sep07-2020> <18:16:06>     17      0.00000214      0.00000023      0.0
 <Sep07-2020> <18:16:07>  >>>> TOTEN
 <Sep07-2020> <18:16:07>  >>>> POPAN
 <Sep07-2020> <18:16:07>  >>>> DEBYE
 <Sep07-2020> <18:16:07>  >>>> ENGRAD
 <Sep07-2020> <18:16:11>  Geometry symmetry displacement    8 out of   10
  Coordinates in Geometry Cycle 16
    Atom         X           Y           Z   (Angstrom)
    1.W         3.108176    1.897951   11.879657
    2.W         4.130619    5.239418   10.697019
    3.W         3.924050    8.310060   12.812186
    4.O         3.867887    5.539820    9.001686
    5.O         5.830819    4.942807   10.905580
    6.O         2.395186    0.825383   10.672295
    7.O         4.729151    1.314963   12.256813
    8.O         3.625678    6.759663   11.662320
    9.O         4.968797    9.483777   12.009886
   10.O         4.689658    7.827209   14.326545
   11.O         2.381324    9.083882   13.182007
   12.O         3.144833    3.731391   11.200495
   13.O         2.128046    1.824349   13.345837
 <Sep07-2020> <18:16:11>  >>>> CORORT
 <Sep07-2020> <18:16:11>  >>>> CLSMAT
 <Sep07-2020> <18:16:11>  >>>> ORTHON
 <Sep07-2020> <18:16:11>  >>>> GENPT
 <Sep07-2020> <18:16:11>  Block Length= 128
 <Sep07-2020> <18:16:11>  >>>> PTBAS
 <Sep07-2020> <18:16:12>  combining surface points...
 <Sep07-2020> <18:16:12>  combining surface points...
 <Sep07-2020> <18:16:12>  combining surface points...
 <Sep07-2020> <18:16:12>  >>>> CYCLE
 <Sep07-2020> <18:16:16>              |Error|         MaxErr       Wt(A-DIIS)
 <Sep07-2020> <18:16:16>      1      0.12751648      0.03677705
 <Sep07-2020> <18:16:17>      2      0.39580096      0.05692497    100.0
 <Sep07-2020> <18:16:19>      3      0.11700051      0.01332241    100.0
 <Sep07-2020> <18:16:21>      4      0.04416158      0.00488023      3.9
 <Sep07-2020> <18:16:23>      5      0.06573180      0.01550244    100.0
 <Sep07-2020> <18:16:24>      6      0.15122779      0.03596478    100.0
 <Sep07-2020> <18:16:26>      7      0.04316613      0.00922813      8.3
 <Sep07-2020> <18:16:28>      8      0.00572942      0.00103885      0.0
 <Sep07-2020> <18:16:29>      9      0.00350078      0.00077330      0.0
 <Sep07-2020> <18:16:31>     10      0.00080078      0.00016255      0.0
 <Sep07-2020> <18:16:33>     11      0.00040461      0.00006222      0.0
 <Sep07-2020> <18:16:34>     12      0.00006469      0.00000689      0.0
 <Sep07-2020> <18:16:36>     13      0.00007175      0.00000810      0.0
 <Sep07-2020> <18:16:37>     14      0.00002888      0.00000534      0.0
 <Sep07-2020> <18:16:39>     15      0.00000878      0.00000183      0.0
 <Sep07-2020> <18:16:40>     16      0.00000404      0.00000070      0.0
 <Sep07-2020> <18:16:40>  SCF converged
 <Sep07-2020> <18:16:41>     17      0.00000214      0.00000023      0.0
 <Sep07-2020> <18:16:42>  >>>> TOTEN
 <Sep07-2020> <18:16:43>  >>>> POPAN
 <Sep07-2020> <18:16:43>  >>>> DEBYE
 <Sep07-2020> <18:16:43>  >>>> ENGRAD
 <Sep07-2020> <18:16:46>  Old frequency:     -5.79034, new:     53.32864
 <Sep07-2020> <18:16:46>  Geometry symmetry displacement    9 out of   10
  Coordinates in Geometry Cycle 16
    Atom         X           Y           Z   (Angstrom)
    1.W         3.108095    1.897894   11.879612
    2.W         4.130866    5.239383   10.697088
    3.W         3.923912    8.310152   12.812168
    4.O         3.868155    5.539742    9.001744
    5.O         5.831061    4.942757   10.905671
    6.O         2.393336    0.825842   10.672836
    7.O         4.729126    1.313988   12.255092
    8.O         3.625937    6.759653   11.662346
    9.O         4.968519    9.484027   12.009917
   10.O         4.689464    7.827509   14.326622
   11.O         2.381010    9.083709   13.181812
   12.O         3.145069    3.731381   11.200606
   13.O         2.129379    1.824647   13.346755
 <Sep07-2020> <18:16:46>  >>>> CORORT
 <Sep07-2020> <18:16:46>  >>>> CLSMAT
 <Sep07-2020> <18:16:46>  >>>> ORTHON
 <Sep07-2020> <18:16:47>  >>>> GENPT
 <Sep07-2020> <18:16:47>  Block Length= 128
 <Sep07-2020> <18:16:47>  >>>> PTBAS
 <Sep07-2020> <18:16:48>  combining surface points...
 <Sep07-2020> <18:16:48>  combining surface points...
 <Sep07-2020> <18:16:48>  combining surface points...
 <Sep07-2020> <18:16:48>  >>>> CYCLE
 <Sep07-2020> <18:16:51>              |Error|         MaxErr       Wt(A-DIIS)
 <Sep07-2020> <18:16:51>      1      0.10975841      0.03168669
 <Sep07-2020> <18:16:53>      2      0.39578540      0.05690996    100.0
 <Sep07-2020> <18:16:55>      3      0.11702213      0.01332441    100.0
 <Sep07-2020> <18:16:56>      4      0.04417752      0.00488280      3.9
 <Sep07-2020> <18:16:58>      5      0.06572906      0.01549907    100.0
 <Sep07-2020> <18:17:00>      6      0.15132571      0.03598408    100.0
 <Sep07-2020> <18:17:01>      7      0.04321615      0.00923666      8.3
 <Sep07-2020> <18:17:03>      8      0.00573347      0.00104048      0.0
 <Sep07-2020> <18:17:05>      9      0.00350095      0.00077396      0.0
 <Sep07-2020> <18:17:06>     10      0.00080074      0.00016268      0.0
 <Sep07-2020> <18:17:08>     11      0.00040464      0.00006227      0.0
 <Sep07-2020> <18:17:09>     12      0.00006471      0.00000689      0.0
 <Sep07-2020> <18:17:11>     13      0.00007170      0.00000814      0.0
 <Sep07-2020> <18:17:12>     14      0.00002882      0.00000531      0.0
 <Sep07-2020> <18:17:14>     15      0.00000879      0.00000184      0.0
 <Sep07-2020> <18:17:15>     16      0.00000404      0.00000070      0.0
 <Sep07-2020> <18:17:16>  SCF converged
 <Sep07-2020> <18:17:17>     17      0.00000214      0.00000023      0.0
 <Sep07-2020> <18:17:17>  >>>> TOTEN
 <Sep07-2020> <18:17:18>  >>>> POPAN
 <Sep07-2020> <18:17:18>  >>>> DEBYE
 <Sep07-2020> <18:17:18>  >>>> ENGRAD
 <Sep07-2020> <18:17:22>  Geometry symmetry displacement   10 out of   10
  Coordinates in Geometry Cycle 16
    Atom         X           Y           Z   (Angstrom)
    1.W         3.108315    1.897838   11.879648
    2.W         4.130408    5.239557   10.697086
    3.W         3.924094    8.310030   12.812132
    4.O         3.867688    5.539857    9.001733
    5.O         5.830676    4.943411   10.905747
    6.O         2.395039    0.825370   10.672366
    7.O         4.729315    1.314720   12.256496
    8.O         3.625006    6.759704   11.662327
    9.O         4.970407    9.482679   12.010310
   10.O         4.688303    7.826707   14.327046
   11.O         2.381835    9.085305   13.180855
   12.O         3.144990    3.731295   11.200555
   13.O         2.128436    1.824241   13.345995
 <Sep07-2020> <18:17:22>  >>>> CORORT
 <Sep07-2020> <18:17:22>  >>>> CLSMAT
 <Sep07-2020> <18:17:22>  >>>> ORTHON
 <Sep07-2020> <18:17:22>  >>>> GENPT
 <Sep07-2020> <18:17:22>  Block Length= 128
 <Sep07-2020> <18:17:22>  >>>> PTBAS
 <Sep07-2020> <18:17:23>  combining surface points...
 <Sep07-2020> <18:17:23>  combining surface points...
 <Sep07-2020> <18:17:23>  combining surface points...
 <Sep07-2020> <18:17:23>  >>>> CYCLE
 <Sep07-2020> <18:17:26>              |Error|         MaxErr       Wt(A-DIIS)
 <Sep07-2020> <18:17:26>      1      0.12161888      0.03048603
 <Sep07-2020> <18:17:28>      2      0.39581399      0.05695441    100.0
 <Sep07-2020> <18:17:30>      3      0.11703391      0.01333766    100.0
 <Sep07-2020> <18:17:32>      4      0.04419315      0.00489297      3.9
 <Sep07-2020> <18:17:33>      5      0.06575215      0.01550354    100.0
 <Sep07-2020> <18:17:35>      6      0.15129645      0.03597594    100.0
 <Sep07-2020> <18:17:37>      7      0.04323704      0.00923140      8.3
 <Sep07-2020> <18:17:39>      8      0.00575521      0.00104635      0.0
 <Sep07-2020> <18:17:40>      9      0.00349813      0.00077564      0.0
 <Sep07-2020> <18:17:42>     10      0.00080031      0.00016283      0.0
 <Sep07-2020> <18:17:43>     11      0.00040493      0.00006241      0.0
 <Sep07-2020> <18:17:45>     12      0.00006473      0.00000689      0.0
 <Sep07-2020> <18:17:46>     13      0.00007159      0.00000820      0.0
 <Sep07-2020> <18:17:48>     14      0.00002872      0.00000527      0.0
 <Sep07-2020> <18:17:49>     15      0.00000880      0.00000185      0.0
 <Sep07-2020> <18:17:51>     16      0.00000403      0.00000069      0.0
 <Sep07-2020> <18:17:51>  SCF converged
 <Sep07-2020> <18:17:52>     17      0.00000213      0.00000023      0.0
 <Sep07-2020> <18:17:53>  >>>> TOTEN
 <Sep07-2020> <18:17:53>  >>>> POPAN
 <Sep07-2020> <18:17:53>  >>>> DEBYE
 <Sep07-2020> <18:17:53>  >>>> ENGRAD
 <Sep07-2020> <18:17:57>  Old frequency:     -3.51538, new:     49.81245
 <Sep07-2020> <18:17:57>  NOTE: Some frequencies have been re-calculated by numerical differentiation
 <Sep07-2020> <18:17:57>        Check the text output file for new values!
 <Sep07-2020> <18:17:57>  NORMAL TERMINATION
 <Sep07-2020> <18:17:57>  END
