
 *******************************************************************************
 *                                                                             *
 *  -------------------------------------                                      *
 *   Amsterdam Density Functional  (ADF)         2019                          *
 *  -------------------------------------                                      *
 *                                               r79301 2019-11-09             *
 *                                                                             *
 *                                                                             *
 *                            =====================                            *
 *                            |                   |                            *
 *                            |     D I R A C     |                            *
 *                            |                   |                            *
 *                            =====================                            *
 *                                                                             *
 *                                                                             *
 *   Online information and documentation:  https://www.scm.com/support/       *
 *   E-mail:  support@scm.com   info@scm.com                                   *
 *                                                                             *
 *   Scientific publications using ADF results must be properly referenced     *
 *   See the User Manuals (or the web site) for recommended citations          *
 *   The terms and conditions of the End User License Agreement apply to       *
 *   the use of ADF, https://www.scm.com/license-terms/                        *
 *                                                                             *
 **********************  x86_64_linux_intel / intelmpi  ************************
 
 
 
  
 DIRAC 2019  RunTime: Oct20-2020 21:17:34  Nodes: 1  Procs: 1

 Temporary files are created in /scratch/kid_0.1419234178 (0x58465342)

1
 HYDROGEN ATOM RELATIVISTIC, Point Nuc, A and c from libtc   
 N J RN H ZN XION ANUC CLIGHT
 5000    1100.00000000197.36710137  1.00000000  0.00000000    1.007825  0.1370360E+03
  PH   PHI     EPS        DEL        DELRVR
  0.30  0.30     2500.00  0.00001000  0.00001000
 IDIRC  NC1  NDEBU NPRIN  IPUN IRCOR IWCOR
   1   300     0     0     0     0     0
   XALPHA      XLATTER      RNUC
  0.70000000  0.00000000  0.00000000 Point Charge
   XN   XL   XJ      XE          XZ      XDELL
  1.0  0.0  0.5      -1.000       1.000     0.00000
 ICORP=  0  NPCL=  0  DEMP=0.00  PEPS=0.000000
 R(1)=  0.1000000E-08 D=  0.1005080E+01 RNUC=  0.0000000E+00
 converged at cycle   32  DENSITY AVERAGING    0.2400
  MAXIMUM ERROR IN R.V(R) IS   0.79874357E-05
 Q,EY,EV,EZ,ESUM,ETOT,RHO  0.100000E+01 -0.266614E+00 -0.619969E+00 -0.910779E+00 -0.203940E+00 -0.415998E+00  0.337036E-17


 DIRAC CALCULATION
1                    HYDROGEN ATOM RELATIVISTIC, Point Nuc, A and c from libtc


 EXCHANGE COEFFICIENT=  0.7000000           TAIL CORRECTION=  0.           NUCLEAR RADIUS=  0.000E+00
0                       ORBITAL    N    L    J     ELECTRONS     EIGENVALUE                DELTA OF EIGENV.

                          1S1/2  1.0  0.0  0.5     1.000       -0.2039397E+00                 0.2720093E-06


                                        NUCLEAR CHARGE=    1.000000
                            INTEGRAL OF CHARGE DENSITY=    1.000000
                           SUM OF THE ORBITAL ENERGIES=     -0.2039
                                          TOTAL ENERGY=     -0.4160
                                        KINETIC ENERGY=      0.4160
                             NUCLEAR ATTRACTION ENERGY=     -0.9108
                             ELECTRON REPULSION ENERGY=      0.2787
                                       EXCHANGE ENERGY=     -0.2000

 *******************************************************************************

                             D I R A C   E X I T
 NORMAL TERMINATION



 =================
 Timing Statistics
 =================
  
 Total Used :                     CPU=        0.06      System=        0.00     Elapsed=        0.07

 Calls  Section                     ( Mean, Percentage )
 ---------------------------------------------------------------------------------------------------
     2  ><      ................      0.00    0.00             0.00    0.00             0.00    0.01
     1  EXIT PROCEDURE .........      0.06  100.00             0.00    0.00             0.07   99.99


 Currently Open Files (EXIT00)
 ====================

 Unit    Access Format  Status   Type       Ident (file)
 -------------------------------------------------------
   3      SEQ    FORM   TRANSP  NORMAL      LOGFILE
                                          ( logfile )
 
Create H   file=TZP-H
XC
  GGA PBE
End
relativistic ZORA
Corepotentials t12.rel
End

 *******************************************************************************
 *                                                                             *
 *  -------------------------------------                                      *
 *   Amsterdam Density Functional  (ADF)         2019                          *
 *  -------------------------------------                                      *
 *                                               r79301 2019-11-09             *
 *                                                                             *
 *                                                                             *
 *                              =================                              *
 *                              |               |                              *
 *                              |     A D F     |                              *
 *                              |               |                              *
 *                              =================                              *
 *                                                                             *
 *                                                                             *
 *   Online information and documentation:  https://www.scm.com/support/       *
 *   E-mail:  support@scm.com   info@scm.com                                   *
 *                                                                             *
 *   Scientific publications using ADF results must be properly referenced     *
 *   See the User Manuals (or the web site) for recommended citations          *
 *   The terms and conditions of the End User License Agreement apply to       *
 *   the use of ADF, https://www.scm.com/license-terms/                        *
 *                                                                             *
 **********************  x86_64_linux_intel / intelmpi  ************************
 
 
 
  
 ADF 2019  RunTime: Oct20-2020 21:17:34  Nodes: 1  Procs: 1

 Temporary files are created in /scratch/kid_0.1709324134 (0x58465342)

 Hydrogen (TZP)



 ===========================
 A T T A C H E D   F I L E S
 ===========================
  
 CREATE - Data File:    TZP-H
                        Hydrogen (TZP)
 Core Potentials:
         file : t12.rel



 ===============================
 M O D E L   P A R A M E T E R S
 ===============================
  
 DENSITY FUNCTIONAL POTENTIAL (scf)
    LDA:                               PW92                                    == Not Default ==
    Gradient Corrections:              PBEc PBEx                               == Not Default ==

 SPIN  (restricted / unrestr.)
    Molecule:                          Restricted                               

 OTHER ASPECTS
    Relativistic Corrections:          scalar (ZORA,MAPA)                      == Not Default ==

    Nuclear Charge Density Model:      Point Charge Nuclei                      
    Core Treatment:                    Frozen Orbital(s)                        

    Hyperfine or Zeeman Interaction:   ---                                      



 =====================================
 S Y M M E T R Y ,   E L E C T R O N S
 =====================================
  
 Symmetry: ATOM

 Irreducible Representations, including subspecies
 -------------------------------------------------
 S
 P:x  P:y  P:z
 D:z2  D:x2-y2  D:xy  D:xz  D:yz
 F:z3  F:z  F:xyz  F:z2x  F:z2y  F:x  F:y


 Configuration of Valence Electrons
 ==================================

          Occupation Numbers
          -------------------------------------------------
 S        1
 P        0
 D        0
 F        0
          -------------------------------------------------

 Total:   1

 Net Charge: 0 (Nuclei minus Electrons)

 Preset values for MO occupations will be applied through SCF cycle no. 1000000
 Thereafter, the program will assign electrons to MOs that are spatially
 similar to the occupied MOs in a "reference" cycle ("KeepOrbitals").
 The reference cycle is always the PREVIOUS cycle: it will evolve with
 the SCF procedure.



 ================================
 (Slater-type)  F U N C T I O N S  ***  (Basis and Fit)  ***
 ================================
  

 Atom Type    1  (H)
 ==============

 Valence Basis Sets:   4
 -----------------------
   1 S    0.690000
   1 S    0.920000
   1 S    1.580000
   2 P    1.250000


 BAS: List of all Elementary Cartesian Basis Functions
 =====================================================

 The numbering in the list below (to the right of the function characteristics) is referred
 to in print-outs of MO eigenvectors and Mulliken populations in the BAS representation
 (as contrasted to the SFO representation).

 Notes:
 1. The functions are characterized by a polynomial prefactor (powers of x,y,z and r) and
    an exponential decay factor alpha.
 2. Since the basis sets are specific for an atom TYPE, the individual functions occur on
    all atoms of that type.
 3. The word 'Core' in the left margin signals that it is a Core Function (CF) : not a
    degree of freedom in the valence set, but only used to ensure orthogonalization of
    the other valence basis functions on the frozen Core Orbitals.


 (power of) X  Y  Z  R     Alpha  on Atom
            ==========     =====     ==========

 H                                    1
                                  ---------------------------------------------------------------------------
            0  0  0  0     0.690      1
            0  0  0  0     0.920      2
            0  0  0  0     1.580      3
            1  0  0  0     1.250      4
            0  1  0  0     1.250      5
            0  0  1  0     1.250      6

 Total number of charge fitting functions (nprimf)        50
 Total number of Cartesian basis functions (naos)          6
 Total number of Cartesian core functions  (ncos)          0



 BAS: List of all Elementary Cartesian Basis Functions
 =====================================================

 The numbering in the list below (to the right of the function characteristics) is referred
 to in print-outs of MO eigenvectors and Mulliken populations in the BAS representation
 (as contrasted to the SFO representation).

 Notes:
 1. The functions are characterized by a polynomial prefactor (powers of x,y,z and r) and
    an exponential decay factor alpha.
 2. Since the basis sets are specific for an atom TYPE, the individual functions occur on
    all atoms of that type.
 3. The word 'Core' in the left margin signals that it is a Core Function (CF) : not a
    degree of freedom in the valence set, but only used to ensure orthogonalization of
    the other valence basis functions on the frozen Core Orbitals.


 (power of) X  Y  Z  R     Alpha  on Atom
            ==========     =====     ==========

 H                                    1
                                  ---------------------------------------------------------------------------
            0  0  0  0     0.690      1
            0  0  0  0     0.920      2
            0  0  0  0     1.580      3
            1  0  0  0     1.250      4
            0  1  0  0     1.250      5
            0  0  1  0     1.250      6
1
 ***************************************************************************************************



                                              ***********************
                                              *  T E C H N I C A L  *
                                              ***********************
  



 =============================================================
 P A R A L L E L I Z A T I O N  and  V E C T O R I Z A T I O N
 =============================================================
  
 Nr of parallel processes:                                1
 Maximum vector length in NumInt loops:                 128



 =====================
 S C F   U P D A T E S
 =====================
  
 Max. nr. of cycles:                               300
 Convergence criterion:                              0.0000000100
   secondary criterion:                              0.0000000100

 Mix parameter (when DIIS does not apply):           0.2000000000
 Special mix parameter for the first cycle:          1.0000000000
 Mixed ADIIS+SDIIS will be used                  
    Max number of expansion vectors:                10
    Pure ADIIS when Max([F,P]) is above              0.1000000000
    Pure SDIIS when Max([F,P]) is below              0.0010000000
 Automatic ElectronSmearing (in case of problematic SCF convergence) disabled



 =================
 P R E C I S I O N  ***  (General: NumInt, NeglectFunctionTails, ...)  ***
 =================
  

 NumInt:           Target precision:                12.0000000000
 -------           Initial precision:               10.0000000000
                   Min. precision (optimization):   10.0000000000

 Neglect Functions:          Basis functions:        0.1000000000E-13
 ------------------          Fit functions:          0.1000000000E-13



 ===========================
 L I N E A R   S C A L I N G
 ===========================
  

 Cut-off radii density fit:                        0.1000000000E-97
 Overlap cut-off criterion AO matrix elements:     0.1000000000E-97
 Cut-offs for Coulomb potential and fitted density:0.1000000000E-97
 Cut-off criterion for Coulomb multipole terms:    0.1000000000E-97
 Progressive Convergence parameter:                 0.000000000    
1
 ***************************************************************************************************



                                            ***************************
                                            *  C O M P U T A T I O N  *
                                            ***************************
  

 Number of elements of the density matrix on this node (used, total):        21        21



 ===========================================
 Numerical Integration : Fuzzy Cells (Becke)
 ===========================================
  
 Becke grid quality: VERYGOOD       
  
 Lebedev angular grid order:             min:  13 max:  41
 Nr. of radial points:                   min:  64 max:  64

 Total nr. of points:         64
 Nr. of blocks:                1
 Block length:                64
 Nr. of dummy points:          0


 Test of Precision of the Numerical Integration Grid
 ===================================================

 Integral of the Total Core Density:                   0.00000000000000



 ========================
 Density Fitting (zlmFit)
 ========================
  
 ZlmFit Fit Quality: VERYGOOD       
  
 Max L-expansion:                        min:   0 max:   0
 Nr. of radial interpolation points:     min: 120 max: 120



 =====
 S C F  ***  ScaSCF  ***
 =====
  

 CYCLE    1
 SCF Error: norm([F,P])=      0.000000000000, max([F,P])=      0.000000000000
 orbitals (Q,E):
 ---------------
 S :1...3            ( 1.00    -0.5000)  ( 0.00    -0.0900)  ( 0.00     1.2936)
 P :1...1            ( 0.00     0.1562)

 CYCLE    2
 SCF Error: norm([F,P])=      0.031537872292, max([F,P])=      0.030110494752
 orbitals (Q,E):
 ---------------
 S :1...2            ( 1.00    -0.2218)  ( 0.00     0.1019)
 P :1...1            ( 0.00     0.4189)

 CYCLE    3
  SDIIS (wt  0.000):  0.1996  0.8004
 A-DIIS (wt  1.000):  0.0000  1.0000
  DIIS coefficients:  0.0000  1.0000
 SCF Error: norm([F,P])=      0.008617989401, max([F,P])=      0.008343029399
 orbitals (Q,E):
 ---------------
 S :1...2            ( 1.00    -0.2422)  ( 0.00     0.0889)
 P :1...1            ( 0.00     0.4024)

 CYCLE    4
  SDIIS (wt  0.993):  0.1666  0.8334
 A-DIIS (wt  0.007):  0.0000  1.0000
  DIIS coefficients:  0.1654  0.8346
 SCF Error: norm([F,P])=      0.001732350026, max([F,P])=      0.001718616814
 orbitals (Q,E):
 ---------------
 S :1...2            ( 1.00    -0.2385)  ( 0.00     0.0908)
 P :1...1            ( 0.00     0.4054)

 CYCLE    5
  SDIIS (wt  1.000):  0.0236  0.9764
  DIIS coefficients:  0.0236  0.9764
 SCF Error: norm([F,P])=      0.000043673449, max([F,P])=      0.000039769875
 orbitals (Q,E):
 ---------------
 S :1...2            ( 1.00    -0.2386)  ( 0.00     0.0908)
 P :1...1            ( 0.00     0.4054)

 CYCLE    6
  SDIIS (wt  1.000): -0.0577  1.0577
  DIIS coefficients: -0.0577  1.0577
 SCF Error: norm([F,P])=      0.000002383805, max([F,P])=      0.000002158128
 orbitals (Q,E):
 ---------------
 S :1...2            ( 1.00    -0.2386)  ( 0.00     0.0908)
 P :1...1            ( 0.00     0.4054)

 CYCLE    7
  SDIIS (wt  1.000): -0.0032  1.0032
  DIIS coefficients: -0.0032  1.0032
 SCF Error: norm([F,P])=      0.000000007721, max([F,P])=      0.000000007228
 orbitals (Q,E):
 ---------------
 S :1...2            ( 1.00    -0.2386)  ( 0.00     0.0908)
 P :1...1            ( 0.00     0.4054)

 SCF CONVERGED

 CYCLE    8
1
 ***************************************************************************************************



                                                *******************
                                                *  R E S U L T S  *
                                                *******************
  
 *** Using FIT density in Focky
  SDIIS (wt  1.000):  0.0192  0.9808
  DIIS coefficients:  0.0192  0.9808
 SCF Error: norm([F,P])=      0.000000000151, max([F,P])=      0.000000000141

 Scaled ZORA Orbital Energies, per Irrep and Spin:
 =================================================
                        Occup              E (au)              E (eV)       Diff (eV) with prev. cycle
                        -----      --------------------        ------       --------------------------
 S
               1        1.000     -0.23861775226993E+00        -6.493               7.43E-09
               2        0.000      0.90791701709251E-01         2.471
               3        0.000      0.15217530108908E+01        41.409
 P
               1        0.000      0.40537978060393E+00        11.031


 Partially Occupied:
               1 S                -0.23861775226993E+00
  
 LUMO :        2 S                 0.90791701709251E-01
  


 Orbital Energies, all Irreps
 ========================================

 Irrep        no.  (spin)   Occup              E (au)                E (eV)
 ---------------------------------------------------------------------------
 S             1             1.00       -0.23861775226993E+00        -6.4931
 S             2             0.00        0.90791701709251E-01         2.4706
 P             1             0.00        0.40537978060393E+00        11.0309
 S             3             0.00        0.15217530108908E+01        41.4090


 All Electron Calculation, thus no Orbital Energies of the Core Orbitals are calculated



 =======================================
 M U L L I K E N   P O P U L A T I O N S
 =======================================
  
 The survey below gives for each atom:
 a) the total charge (Z minus electrons)
 b) the net spin polarization (nr of electrons spin-A minus spin-B)
 c) for each spin the atomic electron valence density (integrated) per L-value.

 Atom              Charge    Spin density          S         P         D         F
 ----              ------    ------------       ------    ------    ------    ------
 1 H              -0.0000                       1.0000    0.0000    0.0000    0.0000

 Populations of individual BAS functions
 ----------------------------------------
 1 H            0.2104  0.6788  0.1107  0.0000  0.0000  0.0000

 Gross Charges per Atom (Z minus electrons)
 ==========================================
            -0.0000
 Net Total: -0.00000000



 =======================================================================
 Electrostatic potential at the Nuclei due to electrons and other nuclei
 =======================================================================
  
         Atom                  Potential
         ----                  ---------
     1)   H                   0.94468022
 
 
 ========================
 No memory problems found
 ========================
 
 Maximum number of active allocate calls:         306
 
 *******************************************************************************

                             A D F   E X I T
 NORMAL TERMINATION



 =================
 Timing Statistics
 =================
  
 Total Used :                     CPU=        0.34      System=        0.02     Elapsed=        0.38

 Calls  Section                     ( Mean, Percentage )
 ---------------------------------------------------------------------------------------------------
     3  ><      ................      0.00    1.18             0.00    0.00             0.00    1.04
     1  INIT    ................      0.07   20.00             0.00   25.00             0.08   20.48
     1  GEOMET  ................      0.02    4.71             0.01   50.00             0.02    5.96
     1  INPUTA  ................      0.00    0.00             0.00    0.00             0.00    0.89
     1  MAINSY  ................      0.01    2.35             0.00    0.00             0.01    3.43
     1  SYMFIT  ................      0.00    0.00             0.00    0.00             0.00    0.42
     1  CORORT  ................      0.00    1.18             0.00    0.00             0.00    0.32
     1  SYMORB  ................      0.00    0.00             0.00    0.00             0.00    0.19
     1  CLSMAT  ................      0.00    1.18             0.00    0.00             0.01    1.36
     1  ORTHON  ................      0.00    1.18             0.00    0.00             0.00    1.24
     1  GENPT   ................      0.01    3.53             0.00    0.00             0.01    3.30
     1  PTBAS   ................      0.00    1.18             0.00    0.00             0.01    1.34
     8  FOCKY   ................      0.02   48.24             0.00   25.00             0.02   44.43
     8  FOCKTR  ................      0.00    1.18             0.00    0.00             0.00    1.23
     8  SDIIS   ................      0.00    5.88             0.00    0.00             0.00    5.63
     1  COREPS  ................      0.01    3.53             0.00    0.00             0.01    3.68
     1  POPAN   ................      0.00    1.18             0.00    0.00             0.00    1.22
     1  DEBYE   ................      0.00    0.00             0.00    0.00             0.00    0.48
     1  EXIT PROCEDURE .........      0.01    3.53             0.00    0.00             0.01    3.35


 Currently Open Files (EXIT00)
 ====================

 Unit    Access Format  Status   Type       Ident (file)
 -------------------------------------------------------
   3      SEQ    FORM   TRANSP  NORMAL      LOGFILE
                                          ( logfile )

 ***************************************************************************************************
 (LOGFILE)
 <Oct20-2020> <21:17:34>  DIRAC 2019  RunTime: Oct20-2020 21:17:34  Nodes: 1  Procs: 1
 <Oct20-2020> <21:17:34>  NORMAL TERMINATION
 <Oct20-2020> <21:17:34>  END
 <Oct20-2020> <21:17:34>  ADF 2019  RunTime: Oct20-2020 21:17:34  Nodes: 1  Procs: 1
 <Oct20-2020> <21:17:34>  Hydrogen (TZP)
 <Oct20-2020> <21:17:34>  RunType   : CREATE
 <Oct20-2020> <21:17:34>  Net Charge: 0 (Nuclei minus Electrons)
 <Oct20-2020> <21:17:34>  Symmetry  : ATOM
  Coordinates
    Atom         X           Y           Z   (Angstrom)
    1.H         0.000000    0.000000    0.000000
 <Oct20-2020> <21:17:34>  >>>> CORORT
 <Oct20-2020> <21:17:34>  >>>> CLSMAT
 <Oct20-2020> <21:17:34>  >>>> ORTHON
 <Oct20-2020> <21:17:34>  >>>> GENPT
 <Oct20-2020> <21:17:34>  Block Length=  64
 <Oct20-2020> <21:17:34>  >>>> PTBAS
 <Oct20-2020> <21:17:34>  >>>> CYCLE
 <Oct20-2020> <21:17:34>              |Error|         MaxErr       Wt(A-DIIS)
 <Oct20-2020> <21:17:34>      1      0.00000000      0.00000000
 <Oct20-2020> <21:17:34>      2      0.03153787      0.03011049
 <Oct20-2020> <21:17:34>      3      0.00861799      0.00834303    100.0
 <Oct20-2020> <21:17:34>      4      0.00173235      0.00171862      0.7
 <Oct20-2020> <21:17:34>      5      0.00004367      0.00003977      0.0
 <Oct20-2020> <21:17:34>      6      0.00000238      0.00000216      0.0
 <Oct20-2020> <21:17:34>      7      0.00000001      0.00000001      0.0
 <Oct20-2020> <21:17:34>  SCF converged
 <Oct20-2020> <21:17:34>      8      0.00000000      0.00000000      0.0
 <Oct20-2020> <21:17:34>  >>>> POPAN
 <Oct20-2020> <21:17:34>  >>>> DEBYE
 <Oct20-2020> <21:17:34>  NORMAL TERMINATION
 <Oct20-2020> <21:17:34>  END

 *******************************************************************************
 *                                                                             *
 *  -------------------------------------                                      *
 *   Amsterdam Density Functional  (ADF)         2019                          *
 *  -------------------------------------                                      *
 *                                               r79301 2019-11-09             *
 *                                                                             *
 *                                                                             *
 *                            =====================                            *
 *                            |                   |                            *
 *                            |     D I R A C     |                            *
 *                            |                   |                            *
 *                            =====================                            *
 *                                                                             *
 *                                                                             *
 *   Online information and documentation:  https://www.scm.com/support/       *
 *   E-mail:  support@scm.com   info@scm.com                                   *
 *                                                                             *
 *   Scientific publications using ADF results must be properly referenced     *
 *   See the User Manuals (or the web site) for recommended citations          *
 *   The terms and conditions of the End User License Agreement apply to       *
 *   the use of ADF, https://www.scm.com/license-terms/                        *
 *                                                                             *
 **********************  x86_64_linux_intel / intelmpi  ************************
 
 
 
  
 DIRAC 2019  RunTime: Oct20-2020 21:17:35  Nodes: 1  Procs: 1

 Temporary files are created in /scratch/kid_0.948904329 (0x58465342)

1
 OXYGEN ATOM 1s CORE RELATIVISTIC, Point Nuc, A and c from li
 N J RN H ZN XION ANUC CLIGHT
 5000    4100.00000000197.36710137  8.00000000  0.00000000   15.994914  0.1370360E+03
  PH   PHI     EPS        DEL        DELRVR
  0.30  0.30     2500.00  0.00001000  0.00001000
 IDIRC  NC1  NDEBU NPRIN  IPUN IRCOR IWCOR
   1   300     0     0     0     0     1
   XALPHA      XLATTER      RNUC
  0.70000000  0.00000000  0.00000000 Point Charge
   XN   XL   XJ      XE          XZ      XDELL
  1.0  0.0  0.5      -5.000       2.000     0.00000
  2.0  0.0  0.5      -1.000       2.000     0.00000
  2.0  1.0  0.5      -1.000       2.000     0.00000
  2.0  1.0  1.5      -1.000       2.000     0.00000
 ICORP=  0  NPCL=  0  DEMP=0.00  PEPS=0.000000
 R(1)=  0.1000000E-08 D=  0.1005080E+01 RNUC=  0.0000000E+00
 converged at cycle   28  DENSITY AVERAGING    0.2400
  MAXIMUM ERROR IN R.V(R) IS   0.81125670E-05
 Q,EY,EV,EZ,ESUM,ETOT,RHO  0.800000E+01 -0.101247E+02 -0.114961E+03 -0.177573E+03 -0.405053E+02 -0.743427E+02  0.414766E-14


 DIRAC CALCULATION
1                    OXYGEN ATOM 1s CORE RELATIVISTIC, Point Nuc, A and c from libtc


 EXCHANGE COEFFICIENT=  0.7000000           TAIL CORRECTION=  0.           NUCLEAR RADIUS=  0.000E+00
0                       ORBITAL    N    L    J     ELECTRONS     EIGENVALUE                DELTA OF EIGENV.

                          1S1/2  1.0  0.0  0.5     2.000       -0.1880014E+02                 0.7264358E-06
                          2S1/2  2.0  0.0  0.5     2.000       -0.8412236E+00                 0.5932752E-05
                          2P1/2  2.0  1.0  0.5     2.000       -0.3063203E+00                 0.5998471E-05
                          2P3/2  2.0  1.0  1.5     2.000       -0.3049609E+00                 0.5986971E-05


                                        NUCLEAR CHARGE=    8.000000
                            INTEGRAL OF CHARGE DENSITY=    8.000000
                           SUM OF THE ORBITAL ENERGIES=    -40.5053
                                          TOTAL ENERGY=    -74.3427
                                        KINETIC ENERGY=     74.4552
                             NUCLEAR ATTRACTION ENERGY=   -177.5730
                             ELECTRON REPULSION ENERGY=     36.3686
                                       EXCHANGE ENERGY=     -7.5935

 *******************************************************************************

                             D I R A C   E X I T
 NORMAL TERMINATION



 =================
 Timing Statistics
 =================
  
 Total Used :                     CPU=        0.10      System=        0.00     Elapsed=        0.11

 Calls  Section                     ( Mean, Percentage )
 ---------------------------------------------------------------------------------------------------
     2  ><      ................      0.00    0.00             0.00    0.00             0.00    0.00
     1  EXIT PROCEDURE .........      0.10  100.00             0.00  100.00             0.11  100.00


 Currently Open Files (EXIT00)
 ====================

 Unit    Access Format  Status   Type       Ident (file)
 -------------------------------------------------------
   3      SEQ    FORM   TRANSP  NORMAL      LOGFILE
                                          ( logfile )
 
Create O   file=TZP-O.1s
XC
  GGA PBE
End
relativistic ZORA
Corepotentials t12.rel
End

 *******************************************************************************
 *                                                                             *
 *  -------------------------------------                                      *
 *   Amsterdam Density Functional  (ADF)         2019                          *
 *  -------------------------------------                                      *
 *                                               r79301 2019-11-09             *
 *                                                                             *
 *                                                                             *
 *                              =================                              *
 *                              |               |                              *
 *                              |     A D F     |                              *
 *                              |               |                              *
 *                              =================                              *
 *                                                                             *
 *                                                                             *
 *   Online information and documentation:  https://www.scm.com/support/       *
 *   E-mail:  support@scm.com   info@scm.com                                   *
 *                                                                             *
 *   Scientific publications using ADF results must be properly referenced     *
 *   See the User Manuals (or the web site) for recommended citations          *
 *   The terms and conditions of the End User License Agreement apply to       *
 *   the use of ADF, https://www.scm.com/license-terms/                        *
 *                                                                             *
 **********************  x86_64_linux_intel / intelmpi  ************************
 
 
 
  
 ADF 2019  RunTime: Oct20-2020 21:17:35  Nodes: 1  Procs: 1

 Temporary files are created in /scratch/kid_0.666952809 (0x58465342)

 Oxygen (TZP, 1s frozen)



 ===========================
 A T T A C H E D   F I L E S
 ===========================
  
 CREATE - Data File:    TZP-O.1s
                        Oxygen (TZP, 1s frozen)
 Core Potentials:
         file : t12.rel



 ===============================
 M O D E L   P A R A M E T E R S
 ===============================
  
 DENSITY FUNCTIONAL POTENTIAL (scf)
    LDA:                               PW92                                    == Not Default ==
    Gradient Corrections:              PBEc PBEx                               == Not Default ==

 SPIN  (restricted / unrestr.)
    Molecule:                          Restricted                               

 OTHER ASPECTS
    Relativistic Corrections:          scalar (ZORA,MAPA)                      == Not Default ==

    Nuclear Charge Density Model:      Point Charge Nuclei                      
    Core Treatment:                    Frozen Orbital(s)                        

    Hyperfine or Zeeman Interaction:   ---                                      



 =====================================
 S Y M M E T R Y ,   E L E C T R O N S
 =====================================
  
 Symmetry: ATOM

 Irreducible Representations, including subspecies
 -------------------------------------------------
 S
 P:x  P:y  P:z
 D:z2  D:x2-y2  D:xy  D:xz  D:yz
 F:z3  F:z  F:xyz  F:z2x  F:z2y  F:x  F:y


 Configuration of Valence Electrons
 ==================================

          Occupation Numbers
          -------------------------------------------------
 S        2
 P        4
 D        0
 F        0
          -------------------------------------------------

 Total:   6

 Net Charge: 0 (Nuclei minus Electrons)

 Preset values for MO occupations will be applied through SCF cycle no. 1000000
 Thereafter, the program will assign electrons to MOs that are spatially
 similar to the occupied MOs in a "reference" cycle ("KeepOrbitals").
 The reference cycle is always the PREVIOUS cycle: it will evolve with
 the SCF procedure.



 ================================
 (Slater-type)  F U N C T I O N S  ***  (Basis and Fit)  ***
 ================================
  

 Atom Type    1  (O)
 ==============

 Valence Basis Sets:   8
 -----------------------
   1 S    7.360000
   2 S    1.720000
   2 S    2.880000
   2 S    7.580000
   2 P    1.120000
   2 P    2.080000
   2 P    4.080000
   3 D    2.000000

 Frozen Core Shells
 ------------------
    S:  1


 BAS: List of all Elementary Cartesian Basis Functions
 =====================================================

 The numbering in the list below (to the right of the function characteristics) is referred
 to in print-outs of MO eigenvectors and Mulliken populations in the BAS representation
 (as contrasted to the SFO representation).

 Notes:
 1. The functions are characterized by a polynomial prefactor (powers of x,y,z and r) and
    an exponential decay factor alpha.
 2. Since the basis sets are specific for an atom TYPE, the individual functions occur on
    all atoms of that type.
 3. The word 'Core' in the left margin signals that it is a Core Function (CF) : not a
    degree of freedom in the valence set, but only used to ensure orthogonalization of
    the other valence basis functions on the frozen Core Orbitals.


 (power of) X  Y  Z  R     Alpha  on Atom
            ==========     =====     ==========

 O                                    1
                                  ---------------------------------------------------------------------------
    Core    0  0  0  0     7.360      1
            0  0  0  1     1.720      2
            0  0  0  1     2.880      3
            0  0  0  1     7.580      4
            1  0  0  0     1.120      5
            0  1  0  0     1.120      6
            0  0  1  0     1.120      7
            1  0  0  0     2.080      8
            0  1  0  0     2.080      9
            0  0  1  0     2.080     10
            1  0  0  0     4.080     11
            0  1  0  0     4.080     12
            0  0  1  0     4.080     13
            2  0  0  0     2.000     14
            1  1  0  0     2.000     15
            1  0  1  0     2.000     16
            0  2  0  0     2.000     17
            0  1  1  0     2.000     18
            0  0  2  0     2.000     19

 Total number of charge fitting functions (nprimf)        82
 Total number of Cartesian basis functions (naos)         19
 Total number of Cartesian core functions  (ncos)          1



 BAS: List of all Elementary Cartesian Basis Functions
 =====================================================

 The numbering in the list below (to the right of the function characteristics) is referred
 to in print-outs of MO eigenvectors and Mulliken populations in the BAS representation
 (as contrasted to the SFO representation).

 Notes:
 1. The functions are characterized by a polynomial prefactor (powers of x,y,z and r) and
    an exponential decay factor alpha.
 2. Since the basis sets are specific for an atom TYPE, the individual functions occur on
    all atoms of that type.
 3. The word 'Core' in the left margin signals that it is a Core Function (CF) : not a
    degree of freedom in the valence set, but only used to ensure orthogonalization of
    the other valence basis functions on the frozen Core Orbitals.


 (power of) X  Y  Z  R     Alpha  on Atom
            ==========     =====     ==========

 O                                    1
                                  ---------------------------------------------------------------------------
    Core    0  0  0  0     7.360      1
            0  0  0  1     1.720      2
            0  0  0  1     2.880      3
            0  0  0  1     7.580      4
            1  0  0  0     1.120      5
            0  1  0  0     1.120      6
            0  0  1  0     1.120      7
            1  0  0  0     2.080      8
            0  1  0  0     2.080      9
            0  0  1  0     2.080     10
            1  0  0  0     4.080     11
            0  1  0  0     4.080     12
            0  0  1  0     4.080     13
            2  0  0  0     2.000     14
            1  1  0  0     2.000     15
            1  0  1  0     2.000     16
            0  2  0  0     2.000     17
            0  1  1  0     2.000     18
            0  0  2  0     2.000     19
1
 ***************************************************************************************************



                                              ***********************
                                              *  T E C H N I C A L  *
                                              ***********************
  



 =============================================================
 P A R A L L E L I Z A T I O N  and  V E C T O R I Z A T I O N
 =============================================================
  
 Nr of parallel processes:                                1
 Maximum vector length in NumInt loops:                 128



 =====================
 S C F   U P D A T E S
 =====================
  
 Max. nr. of cycles:                               300
 Convergence criterion:                              0.0000000100
   secondary criterion:                              0.0000000100

 Mix parameter (when DIIS does not apply):           0.2000000000
 Special mix parameter for the first cycle:          1.0000000000
 Mixed ADIIS+SDIIS will be used                  
    Max number of expansion vectors:                10
    Pure ADIIS when Max([F,P]) is above              0.1000000000
    Pure SDIIS when Max([F,P]) is below              0.0010000000
 Automatic ElectronSmearing (in case of problematic SCF convergence) disabled



 =================
 P R E C I S I O N  ***  (General: NumInt, NeglectFunctionTails, ...)  ***
 =================
  

 NumInt:           Target precision:                12.0000000000
 -------           Initial precision:               10.0000000000
                   Min. precision (optimization):   10.0000000000

 Neglect Functions:          Basis functions:        0.1000000000E-13
 ------------------          Fit functions:          0.1000000000E-13



 ===========================
 L I N E A R   S C A L I N G
 ===========================
  

 Cut-off radii density fit:                        0.1000000000E-97
 Overlap cut-off criterion AO matrix elements:     0.1000000000E-97
 Cut-offs for Coulomb potential and fitted density:0.1000000000E-97
 Cut-off criterion for Coulomb multipole terms:    0.1000000000E-97
 Progressive Convergence parameter:                 0.000000000    
1
 ***************************************************************************************************



                                            ***************************
                                            *  C O M P U T A T I O N  *
                                            ***************************
  

 Number of elements of the density matrix on this node (used, total):       190       190



 ===========================================
 Numerical Integration : Fuzzy Cells (Becke)
 ===========================================
  
 Becke grid quality: VERYGOOD       
  
 Lebedev angular grid order:             min:  13 max:  41
 Nr. of radial points:                   min:  68 max:  68

 Total nr. of points:         68
 Nr. of blocks:                1
 Block length:                68
 Nr. of dummy points:          0


 Test of Precision of the Numerical Integration Grid
 ===================================================

 Integral of the Total Core Density:                   1.99999999865610
 Relative Error:                                      -6.720E-10



 ========================
 Density Fitting (zlmFit)
 ========================
  
 ZlmFit Fit Quality: VERYGOOD       
  
 Max L-expansion:                        min:   0 max:   0
 Nr. of radial interpolation points:     min: 140 max: 140



 =====
 S C F  ***  ScaSCF  ***
 =====
  

 CYCLE    1
 SCF Error: norm([F,P])=      0.000000000000, max([F,P])=      0.000000000000
 orbitals (Q,E):
 ---------------
 S :1...3            ( 2.00    -5.3654)  ( 0.00    -2.2073)  ( 0.00    23.6692)
 P :1...3            ( 4.00    -5.0045)  ( 0.00    -2.0150)  ( 0.00    -0.3846)
 D :1...1            ( 0.00    -2.0410)

 CYCLE    2
 SCF Error: norm([F,P])=      4.562993374873, max([F,P])=      2.528971113813
 orbitals (Q,E):
 ---------------
 S :1...2            ( 2.00    -0.1548)  ( 0.00     1.6948)
 P :1...2            ( 4.00     0.1773)  ( 0.00     0.9552)
 D :1...1            ( 0.00     1.4649)

 CYCLE    3
  SDIIS (wt  0.000):  0.3378  0.6622
 A-DIIS (wt  1.000):  0.4814  0.5186
  DIIS coefficients:  0.4814  0.5186
 SCF Error: norm([F,P])=      2.723155250500, max([F,P])=      1.798667049295
 orbitals (Q,E):
 ---------------
 S :1...2            ( 2.00    -1.1093)  ( 0.00     0.7549)
 P :1...2            ( 4.00    -0.5518)  ( 0.00     0.2590)
 D :1...1            ( 0.00     0.8910)

 CYCLE    4
  SDIIS (wt  0.000):  0.0919  0.9081
 A-DIIS (wt  1.000):  0.0000  1.0000
  DIIS coefficients:  0.0000  1.0000
 SCF Error: norm([F,P])=      0.289027138405, max([F,P])=      0.130648623511
 orbitals (Q,E):
 ---------------
 S :1...2            ( 2.00    -0.7707)  ( 0.00     0.9912)
 P :1...2            ( 4.00    -0.2284)  ( 0.00     0.4046)
 D :1...1            ( 0.00     1.1288)

 CYCLE    5
  SDIIS (wt  0.000):  0.0260  0.6740  0.3001
 A-DIIS (wt  1.000):  0.0000  0.5764  0.4236
  DIIS coefficients:  0.0000  0.5764  0.4236
 SCF Error: norm([F,P])=      0.416615089426, max([F,P])=      0.232643669786
 orbitals (Q,E):
 ---------------
 S :1...2            ( 2.00    -0.8764)  ( 0.00     0.9107)
 P :1...2            ( 4.00    -0.3280)  ( 0.00     0.3557)
 D :1...1            ( 0.00     1.0703)

 CYCLE    6
  SDIIS (wt  0.942):  0.0005  0.0237 -0.0203  0.9960
 A-DIIS (wt  0.058):  0.0000  0.0000  0.0000  1.0000
  DIIS coefficients:  0.0005  0.0224 -0.0191  0.9962
 SCF Error: norm([F,P])=      0.013723272809, max([F,P])=      0.006719036732
 orbitals (Q,E):
 ---------------
 S :1...2            ( 2.00    -0.8830)  ( 0.00     0.9058)
 P :1...2            ( 4.00    -0.3343)  ( 0.00     0.3521)
 D :1...1            ( 0.00     1.0657)

 CYCLE    7
  SDIIS (wt  1.000): -0.0000  0.0016  0.0023  0.0424  0.9537
  DIIS coefficients: -0.0000  0.0016  0.0023  0.0424  0.9537
 SCF Error: norm([F,P])=      0.001103645928, max([F,P])=      0.000634039171
 orbitals (Q,E):
 ---------------
 S :1...2            ( 2.00    -0.8827)  ( 0.00     0.9060)
 P :1...2            ( 4.00    -0.3340)  ( 0.00     0.3523)
 D :1...1            ( 0.00     1.0659)

 CYCLE    8
  SDIIS (wt  1.000): -0.0000 -0.0001  0.0000 -0.0032  0.0268  0.9765
  DIIS coefficients: -0.0000 -0.0001  0.0000 -0.0032  0.0268  0.9765
 SCF Error: norm([F,P])=      0.000035919805, max([F,P])=      0.000020263970
 orbitals (Q,E):
 ---------------
 S :1...2            ( 2.00    -0.8827)  ( 0.00     0.9060)
 P :1...2            ( 4.00    -0.3340)  ( 0.00     0.3522)
 D :1...1            ( 0.00     1.0659)

 CYCLE    9
  SDIIS (wt  1.000): -0.0000  0.0008  0.0188  0.9804
  DIIS coefficients: -0.0000  0.0008  0.0188  0.9804
 SCF Error: norm([F,P])=      0.000000326384, max([F,P])=      0.000000183924
 orbitals (Q,E):
 ---------------
 S :1...2            ( 2.00    -0.8827)  ( 0.00     0.9060)
 P :1...2            ( 4.00    -0.3340)  ( 0.00     0.3522)
 D :1...1            ( 0.00     1.0659)

 CYCLE   10
  SDIIS (wt  1.000):  0.0000  0.0003  0.9996
  DIIS coefficients:  0.0000  0.0003  0.9996
 SCF Error: norm([F,P])=      0.000000000559, max([F,P])=      0.000000000306
 orbitals (Q,E):
 ---------------
 S :1...2            ( 2.00    -0.8827)  ( 0.00     0.9060)
 P :1...2            ( 4.00    -0.3340)  ( 0.00     0.3522)
 D :1...1            ( 0.00     1.0659)

 SCF CONVERGED

 CYCLE   11
1
 ***************************************************************************************************



                                                *******************
                                                *  R E S U L T S  *
                                                *******************
  
 *** Using FIT density in Focky
  SDIIS (wt  1.000): -0.0000  0.0143  0.9857
  DIIS coefficients: -0.0000  0.0143  0.9857
 SCF Error: norm([F,P])=      0.000000000010, max([F,P])=      0.000000000006

 Scaled ZORA Orbital Energies, per Irrep and Spin:
 =================================================
                        Occup              E (au)              E (eV)       Diff (eV) with prev. cycle
                        -----      --------------------        ------       --------------------------
 S
               1        2.000     -0.88272313143209E+00       -24.020              -9.28E-11
               2        0.000      0.90601345014671E+00        24.654
               3        0.000      0.29578810816937E+02       804.880
 P
               1        4.000     -0.33400585272070E+00        -9.089              -8.94E-11
               2        0.000      0.35224911365993E+00         9.585
               3        0.000      0.38342927625315E+01       104.336
 D
               1        0.000      0.10658965783141E+01        29.005


 Partially Occupied:
               1 P                -0.33400585272070E+00
  
 HOMO :        1 S                -0.88272313143209E+00
 LUMO :        2 P                 0.35224911365993E+00
  


 Orbital Energies, all Irreps
 ========================================

 Irrep        no.  (spin)   Occup              E (au)                E (eV)
 ---------------------------------------------------------------------------
 S             1             2.00       -0.88272313143209E+00       -24.0201
 P             1             4.00       -0.33400585272070E+00        -9.0888
 P             2             0.00        0.35224911365993E+00         9.5852
 S             2             0.00        0.90601345014671E+00        24.6539
 D             1             0.00        0.10658965783141E+01        29.0045
 P             3             0.00        0.38342927625315E+01       104.3364
 S             3             0.00        0.29578810816937E+02       804.8804


 Scaled ZORA Orbital Energies of the Core Orbitals:
 ==================================================

 (Note that the atoms are grouped by atomtype, see the labels, and may hence NOT be in input order)

 AtomType  Orbital  Atom                   E (au)                        E (eV)
 --------  -------  ----           --------------------        ----------------
 O           1S        1          -0.18925919758629E+02                -515.000



 =======================================
 M U L L I K E N   P O P U L A T I O N S
 =======================================
  
 The survey below gives for each atom:
 a) the total charge (Z minus electrons)
 b) the net spin polarization (nr of electrons spin-A minus spin-B)
 c) for each spin the atomic electron valence density (integrated) per L-value.

 Atom              Charge    Spin density          S         P         D         F
 ----              ------    ------------       ------    ------    ------    ------
 1 O              -0.0000                       2.0000    4.0000    0.0000    0.0000

 Populations of individual BAS functions
 ----------------------------------------
 1 O            0.0005  0.9226  1.0966 -0.0196  0.3346  0.3346  0.3346  0.7512  0.7512  0.7512
                0.2476  0.2476  0.2476  0.0000  0.0000  0.0000  0.0000  0.0000  0.0000

 Gross Charges per Atom (Z minus electrons)
 ==========================================
            -0.0000
 Net Total: -0.00000000



 =======================================================================
 Electrostatic potential at the Nuclei due to electrons and other nuclei
 =======================================================================
  
         Atom                  Potential
         ----                  ---------
     1)   O                  22.20265662
 
 
 ========================
 No memory problems found
 ========================
 
 Maximum number of active allocate calls:         389
 
 *******************************************************************************

                             A D F   E X I T
 NORMAL TERMINATION



 =================
 Timing Statistics
 =================
  
 Total Used :                     CPU=        0.42      System=        0.03     Elapsed=        0.48

 Calls  Section                     ( Mean, Percentage )
 ---------------------------------------------------------------------------------------------------
     3  ><      ................      0.00    0.95             0.00   12.50             0.00    0.90
     1  INIT    ................      0.06   14.29             0.01   37.50             0.08   16.06
     1  GEOMET  ................      0.02    3.81             0.00   12.50             0.02    4.80
     1  INPUTA  ................      0.00    0.00             0.00    0.00             0.00    0.71
     1  MAINSY  ................      0.01    1.90             0.00    0.00             0.01    2.82
     1  SYMFIT  ................      0.00    0.95             0.00    0.00             0.00    0.34
     1  CORORT  ................      0.00    0.00             0.00    0.00             0.00    0.32
     1  SYMORB  ................      0.00    0.00             0.00    0.00             0.00    0.18
     1  CLSMAT  ................      0.00    0.95             0.00    0.00             0.01    1.21
     1  ORTHON  ................      0.00    0.95             0.00   12.50             0.01    1.09
     1  GENPT   ................      0.01    1.90             0.00   12.50             0.01    3.07
     1  PTBAS   ................      0.00    0.95             0.00    0.00             0.01    1.15
    11  FOCKY   ................      0.02   57.14             0.00   12.50             0.02   51.55
    11  FOCKTR  ................      0.00    2.86             0.00    0.00             0.00    1.56
    11  SDIIS   ................      0.00    4.76             0.00    0.00             0.00    6.29
     1  COREPS  ................      0.02    3.81             0.00    0.00             0.02    3.64
     1  POPAN   ................      0.00    0.95             0.00    0.00             0.01    1.13
     1  DEBYE   ................      0.00    0.95             0.00    0.00             0.00    0.39
     1  EXIT PROCEDURE .........      0.01    2.86             0.00    0.00             0.01    2.78


 Currently Open Files (EXIT00)
 ====================

 Unit    Access Format  Status   Type       Ident (file)
 -------------------------------------------------------
   3      SEQ    FORM   TRANSP  NORMAL      LOGFILE
                                          ( logfile )

 ***************************************************************************************************
 (LOGFILE)
 <Oct20-2020> <21:17:34>  DIRAC 2019  RunTime: Oct20-2020 21:17:34  Nodes: 1  Procs: 1
 <Oct20-2020> <21:17:34>  NORMAL TERMINATION
 <Oct20-2020> <21:17:34>  END
 <Oct20-2020> <21:17:34>  ADF 2019  RunTime: Oct20-2020 21:17:34  Nodes: 1  Procs: 1
 <Oct20-2020> <21:17:34>  Hydrogen (TZP)
 <Oct20-2020> <21:17:34>  RunType   : CREATE
 <Oct20-2020> <21:17:34>  Net Charge: 0 (Nuclei minus Electrons)
 <Oct20-2020> <21:17:34>  Symmetry  : ATOM
  Coordinates
    Atom         X           Y           Z   (Angstrom)
    1.H         0.000000    0.000000    0.000000
 <Oct20-2020> <21:17:34>  >>>> CORORT
 <Oct20-2020> <21:17:34>  >>>> CLSMAT
 <Oct20-2020> <21:17:34>  >>>> ORTHON
 <Oct20-2020> <21:17:34>  >>>> GENPT
 <Oct20-2020> <21:17:34>  Block Length=  64
 <Oct20-2020> <21:17:34>  >>>> PTBAS
 <Oct20-2020> <21:17:34>  >>>> CYCLE
 <Oct20-2020> <21:17:34>              |Error|         MaxErr       Wt(A-DIIS)
 <Oct20-2020> <21:17:34>      1      0.00000000      0.00000000
 <Oct20-2020> <21:17:34>      2      0.03153787      0.03011049
 <Oct20-2020> <21:17:34>      3      0.00861799      0.00834303    100.0
 <Oct20-2020> <21:17:34>      4      0.00173235      0.00171862      0.7
 <Oct20-2020> <21:17:34>      5      0.00004367      0.00003977      0.0
 <Oct20-2020> <21:17:34>      6      0.00000238      0.00000216      0.0
 <Oct20-2020> <21:17:34>      7      0.00000001      0.00000001      0.0
 <Oct20-2020> <21:17:34>  SCF converged
 <Oct20-2020> <21:17:34>      8      0.00000000      0.00000000      0.0
 <Oct20-2020> <21:17:34>  >>>> POPAN
 <Oct20-2020> <21:17:34>  >>>> DEBYE
 <Oct20-2020> <21:17:34>  NORMAL TERMINATION
 <Oct20-2020> <21:17:34>  END
 <Oct20-2020> <21:17:35>  DIRAC 2019  RunTime: Oct20-2020 21:17:35  Nodes: 1  Procs: 1
 <Oct20-2020> <21:17:35>  NORMAL TERMINATION
 <Oct20-2020> <21:17:35>  END
 <Oct20-2020> <21:17:35>  ADF 2019  RunTime: Oct20-2020 21:17:35  Nodes: 1  Procs: 1
 <Oct20-2020> <21:17:35>  Oxygen (TZP, 1s frozen)
 <Oct20-2020> <21:17:35>  RunType   : CREATE
 <Oct20-2020> <21:17:35>  Net Charge: 0 (Nuclei minus Electrons)
 <Oct20-2020> <21:17:35>  Symmetry  : ATOM
  Coordinates
    Atom         X           Y           Z   (Angstrom)
    1.O         0.000000    0.000000    0.000000
 <Oct20-2020> <21:17:35>  >>>> CORORT
 <Oct20-2020> <21:17:35>  >>>> CLSMAT
 <Oct20-2020> <21:17:35>  >>>> ORTHON
 <Oct20-2020> <21:17:35>  >>>> GENPT
 <Oct20-2020> <21:17:35>  Block Length=  68
 <Oct20-2020> <21:17:35>  >>>> PTBAS
 <Oct20-2020> <21:17:35>  >>>> CYCLE
 <Oct20-2020> <21:17:35>              |Error|         MaxErr       Wt(A-DIIS)
 <Oct20-2020> <21:17:35>      1      0.00000000      0.00000000
 <Oct20-2020> <21:17:35>      2      4.56299337      2.52897111
 <Oct20-2020> <21:17:35>      3      2.72315525      1.79866705    100.0
 <Oct20-2020> <21:17:35>      4      0.28902714      0.13064862    100.0
 <Oct20-2020> <21:17:35>      5      0.41661509      0.23264367    100.0
 <Oct20-2020> <21:17:35>      6      0.01372327      0.00671904      5.8
 <Oct20-2020> <21:17:35>      7      0.00110365      0.00063404      0.0
 <Oct20-2020> <21:17:35>      8      0.00003592      0.00002026      0.0
 <Oct20-2020> <21:17:35>      9      0.00000033      0.00000018      0.0
 <Oct20-2020> <21:17:35>     10      0.00000000      0.00000000      0.0
 <Oct20-2020> <21:17:35>  SCF converged
 <Oct20-2020> <21:17:35>     11      0.00000000      0.00000000      0.0
 <Oct20-2020> <21:17:35>  >>>> POPAN
 <Oct20-2020> <21:17:35>  >>>> DEBYE
 <Oct20-2020> <21:17:35>  NORMAL TERMINATION
 <Oct20-2020> <21:17:35>  END

 *******************************************************************************
 *                                                                             *
 *  -------------------------------------                                      *
 *   Amsterdam Density Functional  (ADF)         2019                          *
 *  -------------------------------------                                      *
 *                                               r79301 2019-11-09             *
 *                                                                             *
 *                                                                             *
 *                            =====================                            *
 *                            |                   |                            *
 *                            |     D I R A C     |                            *
 *                            |                   |                            *
 *                            =====================                            *
 *                                                                             *
 *                                                                             *
 *   Online information and documentation:  https://www.scm.com/support/       *
 *   E-mail:  support@scm.com   info@scm.com                                   *
 *                                                                             *
 *   Scientific publications using ADF results must be properly referenced     *
 *   See the User Manuals (or the web site) for recommended citations          *
 *   The terms and conditions of the End User License Agreement apply to       *
 *   the use of ADF, https://www.scm.com/license-terms/                        *
 *                                                                             *
 **********************  x86_64_linux_intel / intelmpi  ************************
 
 
 
  
 DIRAC 2019  RunTime: Oct20-2020 21:17:35  Nodes: 1  Procs: 1

 Temporary files are created in /scratch/kid_0.68213405 (0x58465342)

1
 TUNGSTEN ATOM 4d CORE RELATIVISTIC, Point Nuc, A and c from 
 N J RN H ZN XION ANUC CLIGHT
 5000   22100.00000000197.36710137 74.00000000  0.00000000  183.950932  0.1370360E+03
  PH   PHI     EPS        DEL        DELRVR
  0.30  0.30     2500.00  0.00001000  0.00001000
 IDIRC  NC1  NDEBU NPRIN  IPUN IRCOR IWCOR
   1   300     0     0     0     0    14
   XALPHA      XLATTER      RNUC
  0.70000000  0.00000000  0.00000000 Point Charge
   XN   XL   XJ      XE          XZ      XDELL
  1.0  0.0  0.5   -2600.000       2.000     0.00000
  2.0  0.0  0.5    -425.000       2.000     0.00000
  2.0  1.0  0.5    -425.000       2.000     0.00000
  2.0  1.0  1.5    -425.000       4.000     0.00000
  3.0  0.0  0.5    -100.000       2.000     0.00000
  3.0  1.0  0.5    -100.000       2.000     0.00000
  3.0  1.0  1.5    -100.000       4.000     0.00000
  3.0  2.0  1.5     -80.000       4.000     0.00000
  3.0  2.0  2.5     -80.000       6.000     0.00000
  4.0  0.0  0.5     -22.000       2.000     0.00000
  4.0  1.0  0.5     -20.000       2.000     0.00000
  4.0  1.0  1.5     -20.000       4.000     0.00000
  4.0  2.0  1.5     -11.000       4.000     0.00000
  4.0  2.0  2.5     -11.000       6.000     0.00000
  4.0  3.0  2.5      -1.000       6.000     0.00000
  4.0  3.0  3.5      -1.000       8.000     0.00000
  5.0  0.0  0.5      -3.000       2.000     0.00000
  5.0  1.0  0.5      -2.200       2.000     0.00000
  5.0  1.0  1.5      -2.200       4.000     0.00000
  5.0  2.0  1.5      -0.500       4.000     0.00000
  5.0  2.0  2.5      -0.500       0.000     0.00000
  6.0  0.0  0.5      -0.200       2.000     0.00000
 ICORP=  0  NPCL=  0  DEMP=0.00  PEPS=0.000000
 R(1)=  0.1000000E-08 D=  0.1005080E+01 RNUC=  0.0000000E+00
 converged at cycle   63  DENSITY AVERAGING    0.1536
  MAXIMUM ERROR IN R.V(R) IS   0.78838062E-05
 Q,EY,EV,EZ,ESUM,ETOT,RHO  0.740000E+02 -0.431420E+03 -0.281568E+05 -0.403919E+05 -0.993885E+04 -0.161643E+05  0.726391E-09


 DIRAC CALCULATION
1                    TUNGSTEN ATOM 4d CORE RELATIVISTIC, Point Nuc, A and c from libtc


 EXCHANGE COEFFICIENT=  0.7000000           TAIL CORRECTION=  0.           NUCLEAR RADIUS=  0.000E+00
0                       ORBITAL    N    L    J     ELECTRONS     EIGENVALUE                DELTA OF EIGENV.

                          1S1/2  1.0  0.0  0.5     2.000       -0.2549514E+04                 0.5980248E-04
                          2S1/2  2.0  0.0  0.5     2.000       -0.4399118E+03                 0.5052420E-04
                          2P1/2  2.0  1.0  0.5     2.000       -0.4208427E+03                 0.5265062E-04
                          2P3/2  2.0  1.0  1.5     4.000       -0.3711192E+03                 0.5139441E-04
                          3S1/2  3.0  0.0  0.5     2.000       -0.1012881E+03                 0.3437035E-04
                          3P1/2  3.0  1.0  0.5     2.000       -0.9277148E+02                 0.3553128E-04
                          3P3/2  3.0  1.0  1.5     4.000       -0.8201733E+02                 0.3404634E-04
                          3D3/2  3.0  2.0  1.5     4.000       -0.6762803E+02                 0.3680712E-04
                          3D5/2  3.0  2.0  2.5     6.000       -0.6528623E+02                 0.3629511E-04
                          4S1/2  4.0  0.0  0.5     2.000       -0.2084139E+02                 0.1939427E-04
                          4P1/2  4.0  1.0  0.5     2.000       -0.1730737E+02                 0.1933978E-04
                          4P3/2  4.0  1.0  1.5     4.000       -0.1480597E+02                 0.1810922E-04
                          4D3/2  4.0  2.0  1.5     4.000       -0.8989319E+01                 0.1779394E-04
                          4D5/2  4.0  2.0  2.5     6.000       -0.8528007E+01                 0.1741170E-04
                          4F5/2  4.0  3.0  2.5     6.000       -0.1237480E+01                 0.1544089E-04
                          4F7/2  4.0  3.0  3.5     8.000       -0.1154634E+01                 0.1522033E-04
                          5S1/2  5.0  0.0  0.5     2.000       -0.2863514E+01                 0.7979521E-05
                          5P1/2  5.0  1.0  0.5     2.000       -0.1813289E+01                 0.7246225E-05
                          5P3/2  5.0  1.0  1.5     4.000       -0.1448762E+01                 0.6602120E-05
                          5D3/2  5.0  2.0  1.5     4.000       -0.1486933E+00                 0.3973088E-05
                          5D5/2  5.0  2.0  2.5     0.000       -0.1223153E+00                 0.3735081E-05
                          6S1/2  6.0  0.0  0.5     2.000       -0.1847434E+00                 0.1808440E-05


                                        NUCLEAR CHARGE=   74.000000
                            INTEGRAL OF CHARGE DENSITY=   74.000000
                           SUM OF THE ORBITAL ENERGIES=  -9938.8529
                                          TOTAL ENERGY= -16164.2530
                                        KINETIC ENERGY=  18217.9700
                             NUCLEAR ATTRACTION ENERGY= -40391.9132
                             ELECTRON REPULSION ENERGY=   6333.2551
                                       EXCHANGE ENERGY=   -323.5649

 *******************************************************************************

                             D I R A C   E X I T
 NORMAL TERMINATION



 =================
 Timing Statistics
 =================
  
 Total Used :                     CPU=        0.68      System=        0.01     Elapsed=        0.69

 Calls  Section                     ( Mean, Percentage )
 ---------------------------------------------------------------------------------------------------
     2  ><      ................      0.00    0.00             0.00    0.00             0.00    0.00
     1  EXIT PROCEDURE .........      0.68  100.00             0.01  100.00             0.69  100.00


 Currently Open Files (EXIT00)
 ====================

 Unit    Access Format  Status   Type       Ident (file)
 -------------------------------------------------------
   3      SEQ    FORM   TRANSP  NORMAL      LOGFILE
                                          ( logfile )
 
Create W   file=TZP-W.4d
XC
  GGA PBE
End
relativistic ZORA
Corepotentials t12.rel
End

 *******************************************************************************
 *                                                                             *
 *  -------------------------------------                                      *
 *   Amsterdam Density Functional  (ADF)         2019                          *
 *  -------------------------------------                                      *
 *                                               r79301 2019-11-09             *
 *                                                                             *
 *                                                                             *
 *                              =================                              *
 *                              |               |                              *
 *                              |     A D F     |                              *
 *                              |               |                              *
 *                              =================                              *
 *                                                                             *
 *                                                                             *
 *   Online information and documentation:  https://www.scm.com/support/       *
 *   E-mail:  support@scm.com   info@scm.com                                   *
 *                                                                             *
 *   Scientific publications using ADF results must be properly referenced     *
 *   See the User Manuals (or the web site) for recommended citations          *
 *   The terms and conditions of the End User License Agreement apply to       *
 *   the use of ADF, https://www.scm.com/license-terms/                        *
 *                                                                             *
 **********************  x86_64_linux_intel / intelmpi  ************************
 
 
 
  
 ADF 2019  RunTime: Oct20-2020 21:17:36  Nodes: 1  Procs: 1

 Temporary files are created in /scratch/kid_0.36912879 (0x58465342)

 Tungsten (TZP, 4d frozen)



 ===========================
 A T T A C H E D   F I L E S
 ===========================
  
 CREATE - Data File:    TZP-W.4d
                        Tungsten (TZP, 4d frozen)
 Core Potentials:
         file : t12.rel



 ===============================
 M O D E L   P A R A M E T E R S
 ===============================
  
 DENSITY FUNCTIONAL POTENTIAL (scf)
    LDA:                               PW92                                    == Not Default ==
    Gradient Corrections:              PBEc PBEx                               == Not Default ==

 SPIN  (restricted / unrestr.)
    Molecule:                          Restricted                               

 OTHER ASPECTS
    Relativistic Corrections:          scalar (ZORA,MAPA)                      == Not Default ==

    Nuclear Charge Density Model:      Point Charge Nuclei                      
    Core Treatment:                    Frozen Orbital(s)                        

    Hyperfine or Zeeman Interaction:   ---                                      



 =====================================
 S Y M M E T R Y ,   E L E C T R O N S
 =====================================
  
 Symmetry: ATOM

 Irreducible Representations, including subspecies
 -------------------------------------------------
 S
 P:x  P:y  P:z
 D:z2  D:x2-y2  D:xy  D:xz  D:yz
 F:z3  F:z  F:xyz  F:z2x  F:z2y  F:x  F:y


 Configuration of Valence Electrons
 ==================================

          Occupation Numbers
          -------------------------------------------------
 S        2*2
 P        6
 D        4
 F        14
          -------------------------------------------------

 Total:   28

 Net Charge: 0 (Nuclei minus Electrons)

 Preset values for MO occupations will be applied through SCF cycle no. 1000000
 Thereafter, the program will assign electrons to MOs that are spatially
 similar to the occupied MOs in a "reference" cycle ("KeepOrbitals").
 The reference cycle is always the PREVIOUS cycle: it will evolve with
 the SCF procedure.



 ================================
 (Slater-type)  F U N C T I O N S  ***  (Basis and Fit)  ***
 ================================
  

 Atom Type    1  (W)
 ==============

 Valence Basis Sets:  25
 -----------------------
   1 S   52.000000
   2 S   33.250000
   3 S   19.100000
   4 S   11.650000
   2 P   36.850000
   3 P   16.500000
   4 P   11.550000
   3 D   20.100000
   4 D   10.300000
   1 S  163.900000
   5 S    6.050000
   5 S    3.950000
   6 S    2.850000
   6 S    1.800000
   6 S    1.140000
   5 P    5.900000
   5 P    4.000000
   5 P    2.700000
   5 D    4.150000
   5 D    2.250000
   5 D    1.200000
   4 F   13.550000
   4 F    7.050000
   4 F    3.550000
   6 P    1.800000

 Frozen Core Shells
 ------------------
    S:  4
    P:  3
    D:  2


 BAS: List of all Elementary Cartesian Basis Functions
 =====================================================

 The numbering in the list below (to the right of the function characteristics) is referred
 to in print-outs of MO eigenvectors and Mulliken populations in the BAS representation
 (as contrasted to the SFO representation).

 Notes:
 1. The functions are characterized by a polynomial prefactor (powers of x,y,z and r) and
    an exponential decay factor alpha.
 2. Since the basis sets are specific for an atom TYPE, the individual functions occur on
    all atoms of that type.
 3. The word 'Core' in the left margin signals that it is a Core Function (CF) : not a
    degree of freedom in the valence set, but only used to ensure orthogonalization of
    the other valence basis functions on the frozen Core Orbitals.


 (power of) X  Y  Z  R     Alpha  on Atom
            ==========     =====     ==========

 W                                    1
                                  ---------------------------------------------------------------------------
    Core    0  0  0  0    52.000      1
    Core    0  0  0  1    33.250      2
    Core    0  0  0  2    19.100      3
    Core    0  0  0  3    11.650      4
    Core    1  0  0  0    36.850      5
    Core    0  1  0  0    36.850      6
    Core    0  0  1  0    36.850      7
    Core    1  0  0  1    16.500      8
    Core    0  1  0  1    16.500      9
    Core    0  0  1  1    16.500     10
    Core    1  0  0  2    11.550     11
    Core    0  1  0  2    11.550     12
    Core    0  0  1  2    11.550     13
    Core    2  0  0  0    20.100     14
    Core    1  1  0  0    20.100     15
    Core    1  0  1  0    20.100     16
    Core    0  2  0  0    20.100     17
    Core    0  1  1  0    20.100     18
    Core    0  0  2  0    20.100     19
    Core    2  0  0  1    10.300     20
    Core    1  1  0  1    10.300     21
    Core    1  0  1  1    10.300     22
    Core    0  2  0  1    10.300     23
    Core    0  1  1  1    10.300     24
    Core    0  0  2  1    10.300     25
            0  0  0  0   163.900     26
            0  0  0  4     6.050     27
            0  0  0  4     3.950     28
            0  0  0  5     2.850     29
            0  0  0  5     1.800     30
            0  0  0  5     1.140     31
            1  0  0  3     5.900     32
            0  1  0  3     5.900     33
            0  0  1  3     5.900     34
            1  0  0  3     4.000     35
            0  1  0  3     4.000     36
            0  0  1  3     4.000     37
            1  0  0  3     2.700     38
            0  1  0  3     2.700     39
            0  0  1  3     2.700     40
            2  0  0  2     4.150     41
            1  1  0  2     4.150     42
            1  0  1  2     4.150     43
            0  2  0  2     4.150     44
            0  1  1  2     4.150     45
            0  0  2  2     4.150     46
            2  0  0  2     2.250     47
            1  1  0  2     2.250     48
            1  0  1  2     2.250     49
            0  2  0  2     2.250     50
            0  1  1  2     2.250     51
            0  0  2  2     2.250     52
            2  0  0  2     1.200     53
            1  1  0  2     1.200     54
            1  0  1  2     1.200     55
            0  2  0  2     1.200     56
            0  1  1  2     1.200     57
            0  0  2  2     1.200     58
            3  0  0  0    13.550     59
            2  1  0  0    13.550     60
            2  0  1  0    13.550     61
            1  2  0  0    13.550     62
            1  1  1  0    13.550     63
            1  0  2  0    13.550     64
            0  3  0  0    13.550     65
            0  2  1  0    13.550     66
            0  1  2  0    13.550     67
            0  0  3  0    13.550     68
            3  0  0  0     7.050     69
            2  1  0  0     7.050     70
            2  0  1  0     7.050     71
            1  2  0  0     7.050     72
            1  1  1  0     7.050     73
            1  0  2  0     7.050     74
            0  3  0  0     7.050     75
            0  2  1  0     7.050     76
            0  1  2  0     7.050     77
            0  0  3  0     7.050     78
            3  0  0  0     3.550     79
            2  1  0  0     3.550     80
            2  0  1  0     3.550     81
            1  2  0  0     3.550     82
            1  1  1  0     3.550     83
            1  0  2  0     3.550     84
            0  3  0  0     3.550     85
            0  2  1  0     3.550     86
            0  1  2  0     3.550     87
            0  0  3  0     3.550     88
            1  0  0  4     1.800     89
            0  1  0  4     1.800     90
            0  0  1  4     1.800     91

 Total number of charge fitting functions (nprimf)       329
 Total number of Cartesian basis functions (naos)         91
 Total number of Cartesian core functions  (ncos)         25



 BAS: List of all Elementary Cartesian Basis Functions
 =====================================================

 The numbering in the list below (to the right of the function characteristics) is referred
 to in print-outs of MO eigenvectors and Mulliken populations in the BAS representation
 (as contrasted to the SFO representation).

 Notes:
 1. The functions are characterized by a polynomial prefactor (powers of x,y,z and r) and
    an exponential decay factor alpha.
 2. Since the basis sets are specific for an atom TYPE, the individual functions occur on
    all atoms of that type.
 3. The word 'Core' in the left margin signals that it is a Core Function (CF) : not a
    degree of freedom in the valence set, but only used to ensure orthogonalization of
    the other valence basis functions on the frozen Core Orbitals.


 (power of) X  Y  Z  R     Alpha  on Atom
            ==========     =====     ==========

 W                                    1
                                  ---------------------------------------------------------------------------
    Core    0  0  0  0    52.000      1
    Core    0  0  0  1    33.250      2
    Core    0  0  0  2    19.100      3
    Core    0  0  0  3    11.650      4
    Core    1  0  0  0    36.850      5
    Core    0  1  0  0    36.850      6
    Core    0  0  1  0    36.850      7
    Core    1  0  0  1    16.500      8
    Core    0  1  0  1    16.500      9
    Core    0  0  1  1    16.500     10
    Core    1  0  0  2    11.550     11
    Core    0  1  0  2    11.550     12
    Core    0  0  1  2    11.550     13
    Core    2  0  0  0    20.100     14
    Core    1  1  0  0    20.100     15
    Core    1  0  1  0    20.100     16
    Core    0  2  0  0    20.100     17
    Core    0  1  1  0    20.100     18
    Core    0  0  2  0    20.100     19
    Core    2  0  0  1    10.300     20
    Core    1  1  0  1    10.300     21
    Core    1  0  1  1    10.300     22
    Core    0  2  0  1    10.300     23
    Core    0  1  1  1    10.300     24
    Core    0  0  2  1    10.300     25
            0  0  0  0   163.900     26
            0  0  0  4     6.050     27
            0  0  0  4     3.950     28
            0  0  0  5     2.850     29
            0  0  0  5     1.800     30
            0  0  0  5     1.140     31
            1  0  0  3     5.900     32
            0  1  0  3     5.900     33
            0  0  1  3     5.900     34
            1  0  0  3     4.000     35
            0  1  0  3     4.000     36
            0  0  1  3     4.000     37
            1  0  0  3     2.700     38
            0  1  0  3     2.700     39
            0  0  1  3     2.700     40
            2  0  0  2     4.150     41
            1  1  0  2     4.150     42
            1  0  1  2     4.150     43
            0  2  0  2     4.150     44
            0  1  1  2     4.150     45
            0  0  2  2     4.150     46
            2  0  0  2     2.250     47
            1  1  0  2     2.250     48
            1  0  1  2     2.250     49
            0  2  0  2     2.250     50
            0  1  1  2     2.250     51
            0  0  2  2     2.250     52
            2  0  0  2     1.200     53
            1  1  0  2     1.200     54
            1  0  1  2     1.200     55
            0  2  0  2     1.200     56
            0  1  1  2     1.200     57
            0  0  2  2     1.200     58
            3  0  0  0    13.550     59
            2  1  0  0    13.550     60
            2  0  1  0    13.550     61
            1  2  0  0    13.550     62
            1  1  1  0    13.550     63
            1  0  2  0    13.550     64
            0  3  0  0    13.550     65
            0  2  1  0    13.550     66
            0  1  2  0    13.550     67
            0  0  3  0    13.550     68
            3  0  0  0     7.050     69
            2  1  0  0     7.050     70
            2  0  1  0     7.050     71
            1  2  0  0     7.050     72
            1  1  1  0     7.050     73
            1  0  2  0     7.050     74
            0  3  0  0     7.050     75
            0  2  1  0     7.050     76
            0  1  2  0     7.050     77
            0  0  3  0     7.050     78
            3  0  0  0     3.550     79
            2  1  0  0     3.550     80
            2  0  1  0     3.550     81
            1  2  0  0     3.550     82
            1  1  1  0     3.550     83
[...]
 <Oct20-2020> <21:54:56>  >>>> CORORT
 <Oct20-2020> <21:54:57>  >>>> CLSMAT
 <Oct20-2020> <21:54:57>  >>>> ORTHON
 <Oct20-2020> <21:54:57>  >>>> GENPT
 <Oct20-2020> <21:54:57>  Block Length= 128
 <Oct20-2020> <21:54:57>  >>>> PTBAS
 <Oct20-2020> <21:54:58>  combining surface points...
 <Oct20-2020> <21:54:58>  combining surface points...
 <Oct20-2020> <21:54:58>  combining surface points...
 <Oct20-2020> <21:54:58>  >>>> CYCLE
 <Oct20-2020> <21:55:01>              |Error|         MaxErr       Wt(A-DIIS)
 <Oct20-2020> <21:55:01>      1      0.21259057      0.04979456
 <Oct20-2020> <21:55:03>      2      0.38115034      0.04314212    100.0
 <Oct20-2020> <21:55:05>      3      0.16076393      0.01818119    100.0
 <Oct20-2020> <21:55:06>      4      0.30592787      0.03696720    100.0
 <Oct20-2020> <21:55:08>      5      0.17503390      0.01864108     17.8
 <Oct20-2020> <21:55:09>      6      0.09930674      0.01576063     14.9
 <Oct20-2020> <21:55:11>      7      0.06707101      0.01021327      9.3
 <Oct20-2020> <21:55:13>      8      0.03032420      0.00446148      3.5
 <Oct20-2020> <21:55:14>      9      0.01064123      0.00162649      0.6
 <Oct20-2020> <21:55:16>     10      0.00473988      0.00059864      0.0
 <Oct20-2020> <21:55:17>     11      0.00185338      0.00027546      0.0
 <Oct20-2020> <21:55:19>     12      0.00074078      0.00012122      0.0
 <Oct20-2020> <21:55:20>     13      0.00058324      0.00009375      0.0
 <Oct20-2020> <21:55:22>     14      0.00017738      0.00002246      0.0
 <Oct20-2020> <21:55:24>     15      0.00010061      0.00001306      0.0
 <Oct20-2020> <21:55:25>     16      0.00003463      0.00000434      0.0
 <Oct20-2020> <21:55:27>     17      0.00001420      0.00000244      0.0
 <Oct20-2020> <21:55:28>     18      0.00001269      0.00000152      0.0
 <Oct20-2020> <21:55:30>     19      0.00001115      0.00000195      0.0
 <Oct20-2020> <21:55:31>     20      0.00000340      0.00000063      0.0
 <Oct20-2020> <21:55:31>  SCF converged
 <Oct20-2020> <21:55:32>     21      0.00000364      0.00000051      0.0
 <Oct20-2020> <21:55:33>  >>>> TOTEN
 <Oct20-2020> <21:55:35>  >>>> POPAN
 <Oct20-2020> <21:55:35>  >>>> DEBYE
 <Oct20-2020> <21:55:35>  >>>> ENGRAD
 <Oct20-2020> <21:55:40>  current energy                               -6.67904710 Hartree
 <Oct20-2020> <21:55:40>  energy change                      -0.00000057     0.00100000    T
 <Oct20-2020> <21:55:40>  constrained gradient max            0.00182221     0.00100000    F
 <Oct20-2020> <21:55:40>  constrained gradient rms            0.00047580     0.00066667    T
 <Oct20-2020> <21:55:40>  gradient max                        0.00182221
 <Oct20-2020> <21:55:40>  gradient rms                        0.00047580
 <Oct20-2020> <21:55:40>  cart. step max                      0.02218560     0.01000000    F
 <Oct20-2020> <21:55:40>  cart. step rms                      0.00752162     0.00666667    F
  Coordinates in Geometry Cycle 55
    Atom         X           Y           Z   (Angstrom)
    1.W        13.831056   10.491444    2.223799
    2.H        12.759555   12.742286    2.931705
    3.W        11.732727   11.601711    5.055579
    4.W         9.483128   10.483178    2.268321
    5.W        11.704179    8.080191    2.622516
    6.O        14.046785   10.343778    0.482778
    7.O        13.589088    8.593429    2.682058
    8.O         9.706827   12.215083    1.955951
    9.O        13.170445   10.687752    4.424106
   10.O        15.492311   10.628826    2.804098
   11.O        11.636329    9.975016    2.123243
   12.O        11.678115    7.025782    1.221025
   13.O        10.219573   10.828156    4.415536
   14.O         7.856248   10.363944    2.994133
   15.O         9.212079    9.832894    0.631323
   16.O         9.948115    8.351896    3.006688
   17.O        11.890455   13.274602    4.433977
   18.O        11.717699   11.587629    6.836051
   19.O        12.056870    7.012031    4.229273
   20.O        13.263467   12.353320    2.164412
   21.H        11.236847    6.723707    4.675790
 <Oct20-2020> <21:55:40>  >>>> CORORT
 <Oct20-2020> <21:55:40>  >>>> CLSMAT
 <Oct20-2020> <21:55:40>  >>>> ORTHON
 <Oct20-2020> <21:55:40>  >>>> GENPT
 <Oct20-2020> <21:55:40>  Block Length= 128
 <Oct20-2020> <21:55:40>  >>>> PTBAS
 <Oct20-2020> <21:55:42>  combining surface points...
 <Oct20-2020> <21:55:42>  combining surface points...
 <Oct20-2020> <21:55:42>  combining surface points...
 <Oct20-2020> <21:55:42>  >>>> CYCLE
 <Oct20-2020> <21:55:45>              |Error|         MaxErr       Wt(A-DIIS)
 <Oct20-2020> <21:55:45>      1      0.78920565      0.23834941
 <Oct20-2020> <21:55:47>      2      0.37734974      0.04356129    100.0
 <Oct20-2020> <21:55:48>      3      0.15951395      0.01840393    100.0
 <Oct20-2020> <21:55:50>      4      0.30544032      0.03772285    100.0
 <Oct20-2020> <21:55:51>      5      0.16827571      0.01748771     16.7
 <Oct20-2020> <21:55:53>      6      0.09834356      0.01594915     15.1
 <Oct20-2020> <21:55:55>      7      0.06552640      0.00990768      9.0
 <Oct20-2020> <21:55:56>      8      0.02996534      0.00431070      3.3
 <Oct20-2020> <21:55:58>      9      0.01031793      0.00161091      0.6
 <Oct20-2020> <21:56:00>     10      0.00464360      0.00057609      0.0
 <Oct20-2020> <21:56:01>     11      0.00186056      0.00026949      0.0
 <Oct20-2020> <21:56:03>     12      0.00072787      0.00011774      0.0
 <Oct20-2020> <21:56:04>     13      0.00056126      0.00009314      0.0
 <Oct20-2020> <21:56:06>     14      0.00017571      0.00002267      0.0
 <Oct20-2020> <21:56:07>     15      0.00010528      0.00001410      0.0
 <Oct20-2020> <21:56:09>     16      0.00003353      0.00000412      0.0
 <Oct20-2020> <21:56:10>     17      0.00001437      0.00000247      0.0
 <Oct20-2020> <21:56:12>     18      0.00001286      0.00000157      0.0
 <Oct20-2020> <21:56:13>     19      0.00001097      0.00000194      0.0
 <Oct20-2020> <21:56:15>     20      0.00000358      0.00000067      0.0
 <Oct20-2020> <21:56:15>  SCF converged
 <Oct20-2020> <21:56:16>     21      0.00000361      0.00000049      0.0
 <Oct20-2020> <21:56:17>  >>>> TOTEN
 <Oct20-2020> <21:56:19>  >>>> POPAN
 <Oct20-2020> <21:56:19>  >>>> DEBYE
 <Oct20-2020> <21:56:19>  >>>> ENGRAD
 <Oct20-2020> <21:56:24>  current energy                               -6.67902079 Hartree
 <Oct20-2020> <21:56:24>  energy change                       0.00002631     0.00100000    T
 <Oct20-2020> <21:56:24>  constrained gradient max            0.00366879     0.00100000    F
 <Oct20-2020> <21:56:24>  constrained gradient rms            0.00085943     0.00066667    F
 <Oct20-2020> <21:56:24>  gradient max                        0.00366879
 <Oct20-2020> <21:56:24>  gradient rms                        0.00085943
 <Oct20-2020> <21:56:24>  cart. step max                      0.01763721     0.01000000    F
 <Oct20-2020> <21:56:24>  cart. step rms                      0.00573724     0.00666667    T
  Coordinates in Geometry Cycle 56
    Atom         X           Y           Z   (Angstrom)
    1.W        13.826635   10.493799    2.222847
    2.H        12.749377   12.741896    2.930660
    3.W        11.733427   11.598205    5.058233
    4.W         9.488379   10.485804    2.266599
    5.W        11.705541    8.073090    2.620768
    6.O        14.049670   10.348793    0.482545
    7.O        13.591228    8.590775    2.677761
    8.O         9.720268   12.216875    1.955153
    9.O        13.168958   10.685283    4.423630
   10.O        15.485066   10.646463    2.807237
   11.O        11.637146    9.959921    2.113681
   12.O        11.679786    7.012925    1.223412
   13.O        10.222482   10.828596    4.415566
   14.O         7.863206   10.378585    2.998182
   15.O         9.209903    9.836352    0.630432
   16.O         9.948357    8.353541    3.004405
   17.O        11.892419   13.270622    4.434602
   18.O        11.718339   11.580482    6.839073
   19.O        12.055695    7.007628    4.232010
   20.O        13.252810   12.353336    2.162428
   21.H        11.233205    6.733681    4.683136
 <Oct20-2020> <21:56:24>  >>>> CORORT
 <Oct20-2020> <21:56:24>  >>>> CLSMAT
 <Oct20-2020> <21:56:24>  >>>> ORTHON
 <Oct20-2020> <21:56:24>  >>>> GENPT
 <Oct20-2020> <21:56:24>  Block Length= 128
 <Oct20-2020> <21:56:24>  >>>> PTBAS
 <Oct20-2020> <21:56:25>  combining surface points...
 <Oct20-2020> <21:56:25>  combining surface points...
 <Oct20-2020> <21:56:25>  combining surface points...
 <Oct20-2020> <21:56:25>  >>>> CYCLE
 <Oct20-2020> <21:56:29>              |Error|         MaxErr       Wt(A-DIIS)
 <Oct20-2020> <21:56:29>      1      0.62653667      0.20951867
 <Oct20-2020> <21:56:30>      2      0.38280275      0.04332975    100.0
 <Oct20-2020> <21:56:32>      3      0.16277360      0.01888438    100.0
 <Oct20-2020> <21:56:34>      4      0.31407549      0.03770059    100.0
 <Oct20-2020> <21:56:35>      5      0.16847472      0.01789230     17.1
 <Oct20-2020> <21:56:37>      6      0.09921373      0.01584615     15.0
 <Oct20-2020> <21:56:39>      7      0.06484823      0.00981115      8.9
 <Oct20-2020> <21:56:40>      8      0.02992021      0.00440732      3.4
 <Oct20-2020> <21:56:42>      9      0.01025479      0.00161429      0.6
 <Oct20-2020> <21:56:43>     10      0.00470659      0.00058083      0.0
 <Oct20-2020> <21:56:45>     11      0.00181955      0.00026993      0.0
 <Oct20-2020> <21:56:46>     12      0.00072775      0.00011376      0.0
 <Oct20-2020> <21:56:48>     13      0.00057348      0.00009938      0.0
 <Oct20-2020> <21:56:49>     14      0.00017823      0.00002249      0.0
 <Oct20-2020> <21:56:51>     15      0.00010749      0.00001429      0.0
 <Oct20-2020> <21:56:52>     16      0.00003292      0.00000423      0.0
 <Oct20-2020> <21:56:54>     17      0.00001453      0.00000263      0.0
 <Oct20-2020> <21:56:55>     18      0.00001284      0.00000148      0.0
 <Oct20-2020> <21:56:57>     19      0.00001127      0.00000202      0.0
 <Oct20-2020> <21:56:58>     20      0.00000341      0.00000063      0.0
 <Oct20-2020> <21:56:59>  SCF converged
 <Oct20-2020> <21:57:00>     21      0.00000378      0.00000052      0.0
 <Oct20-2020> <21:57:01>  >>>> TOTEN
 <Oct20-2020> <21:57:03>  >>>> POPAN
 <Oct20-2020> <21:57:03>  >>>> DEBYE
 <Oct20-2020> <21:57:03>  >>>> ENGRAD
 <Oct20-2020> <21:57:08>  current energy                               -6.67906042 Hartree
 <Oct20-2020> <21:57:08>  energy change                      -0.00003963     0.00100000    T
 <Oct20-2020> <21:57:08>  constrained gradient max            0.00198343     0.00100000    F
 <Oct20-2020> <21:57:08>  constrained gradient rms            0.00057842     0.00066667    T
 <Oct20-2020> <21:57:08>  gradient max                        0.00198343
 <Oct20-2020> <21:57:08>  gradient rms                        0.00057842
 <Oct20-2020> <21:57:08>  cart. step max                      0.00458319     0.01000000    T
 <Oct20-2020> <21:57:08>  cart. step rms                      0.00181782     0.00666667    T
  Coordinates in Geometry Cycle 57
    Atom         X           Y           Z   (Angstrom)
    1.W        13.826916   10.492259    2.222545
    2.H        12.748094   12.739022    2.929012
    3.W        11.732532   11.598776    5.059453
    4.W         9.489260   10.487644    2.266868
    5.W        11.704618    8.073279    2.621126
    6.O        14.049769   10.344779    0.482652
    7.O        13.589714    8.591198    2.679364
    8.O         9.717454   12.219814    1.958989
    9.O        13.168399   10.685661    4.424873
   10.O        15.486119   10.643106    2.804757
   11.O        11.635919    9.962395    2.114093
   12.O        11.680108    7.012330    1.224179
   13.O        10.221381   10.827814    4.415031
   14.O         7.863220   10.374123    2.995747
   15.O         9.212286    9.840935    0.629159
   16.O         9.947942    8.353755    3.002824
   17.O        11.891711   13.271109    4.436119
   18.O        11.717431   11.581709    6.840304
   19.O        12.059247    7.007925    4.230813
   20.O        13.253081   12.352479    2.160992
   21.H        11.236696    6.736541    4.683460
 <Oct20-2020> <21:57:08>  >>>> CORORT
 <Oct20-2020> <21:57:08>  >>>> CLSMAT
 <Oct20-2020> <21:57:08>  >>>> ORTHON
 <Oct20-2020> <21:57:08>  >>>> GENPT
 <Oct20-2020> <21:57:08>  Block Length= 128
 <Oct20-2020> <21:57:08>  >>>> PTBAS
 <Oct20-2020> <21:57:09>  combining surface points...
 <Oct20-2020> <21:57:09>  combining surface points...
 <Oct20-2020> <21:57:09>  combining surface points...
 <Oct20-2020> <21:57:09>  >>>> CYCLE
 <Oct20-2020> <21:57:12>              |Error|         MaxErr       Wt(A-DIIS)
 <Oct20-2020> <21:57:12>      1      0.27289871      0.09270985
 <Oct20-2020> <21:57:14>      2      0.37948854      0.04316287    100.0
 <Oct20-2020> <21:57:16>      3      0.16350492      0.01929837    100.0
 <Oct20-2020> <21:57:17>      4      0.32267564      0.03893980    100.0
 <Oct20-2020> <21:57:19>      5      0.15605353      0.01633412     15.5
 <Oct20-2020> <21:57:21>      6      0.09691319      0.01566840     14.8
 <Oct20-2020> <21:57:22>      7      0.06093648      0.00900538      8.1
 <Oct20-2020> <21:57:24>      8      0.02942080      0.00441787      3.5
 <Oct20-2020> <21:57:26>      9      0.00994512      0.00159185      0.6
 <Oct20-2020> <21:57:27>     10      0.00459308      0.00056414      0.0
 <Oct20-2020> <21:57:29>     11      0.00176241      0.00026405      0.0
 <Oct20-2020> <21:57:30>     12      0.00070123      0.00010849      0.0
 <Oct20-2020> <21:57:32>     13      0.00056073      0.00010011      0.0
 <Oct20-2020> <21:57:33>     14      0.00017659      0.00002255      0.0
 <Oct20-2020> <21:57:35>     15      0.00011340      0.00001510      0.0
 <Oct20-2020> <21:57:36>     16      0.00002934      0.00000369      0.0
 <Oct20-2020> <21:57:38>     17      0.00001472      0.00000275      0.0
 <Oct20-2020> <21:57:39>     18      0.00001271      0.00000156      0.0
 <Oct20-2020> <21:57:41>     19      0.00001078      0.00000189      0.0
 <Oct20-2020> <21:57:42>     20      0.00000310      0.00000054      0.0
 <Oct20-2020> <21:57:43>  SCF converged
 <Oct20-2020> <21:57:44>     21      0.00000365      0.00000050      0.0
 <Oct20-2020> <21:57:44>  >>>> TOTEN
 <Oct20-2020> <21:57:46>  >>>> POPAN
 <Oct20-2020> <21:57:46>  >>>> DEBYE
 <Oct20-2020> <21:57:47>  >>>> ENGRAD
 <Oct20-2020> <21:57:51>  current energy                               -6.67907438 Hartree
 <Oct20-2020> <21:57:51>  energy change                      -0.00001396     0.00100000    T
 <Oct20-2020> <21:57:51>  constrained gradient max            0.00088176     0.00100000    T
 <Oct20-2020> <21:57:51>  constrained gradient rms            0.00027949     0.00066667    T
 <Oct20-2020> <21:57:51>  gradient max                        0.00088176
 <Oct20-2020> <21:57:51>  gradient rms                        0.00027949
 <Oct20-2020> <21:57:51>  cart. step max                      0.00753738     0.01000000    T
 <Oct20-2020> <21:57:51>  cart. step rms                      0.00168484     0.00666667    T
 <Oct20-2020> <21:57:51>  GEOMETRY CONVERGED
 <Oct20-2020> <21:57:51>  Calculating Energy Terms for Final Geometry
  Coordinates in Geometry Cycle 57
    Atom         X           Y           Z   (Angstrom)
    1.W        13.826916   10.492259    2.222545
    2.H        12.748094   12.739022    2.929012
    3.W        11.732532   11.598776    5.059453
    4.W         9.489260   10.487644    2.266868
    5.W        11.704618    8.073279    2.621126
    6.O        14.049769   10.344779    0.482652
    7.O        13.589714    8.591198    2.679364
    8.O         9.717454   12.219814    1.958989
    9.O        13.168399   10.685661    4.424873
   10.O        15.486119   10.643106    2.804757
   11.O        11.635919    9.962395    2.114093
   12.O        11.680108    7.012330    1.224179
   13.O        10.221381   10.827814    4.415031
   14.O         7.863220   10.374123    2.995747
   15.O         9.212286    9.840935    0.629159
   16.O         9.947942    8.353755    3.002824
   17.O        11.891711   13.271109    4.436119
   18.O        11.717431   11.581709    6.840304
   19.O        12.059247    7.007925    4.230813
   20.O        13.253081   12.352479    2.160992
   21.H        11.236696    6.736541    4.683460
 <Oct20-2020> <21:57:51>  >>>> CORORT
 <Oct20-2020> <21:57:52>  >>>> CLSMAT
 <Oct20-2020> <21:57:52>  >>>> ORTHON
 <Oct20-2020> <21:57:52>  >>>> GENPT
 <Oct20-2020> <21:57:52>  Block Length= 128
 <Oct20-2020> <21:57:52>  >>>> PTBAS
 <Oct20-2020> <21:57:53>  combining surface points...
 <Oct20-2020> <21:57:53>  combining surface points...
 <Oct20-2020> <21:57:53>  combining surface points...
 <Oct20-2020> <21:57:53>  >>>> CYCLE
 <Oct20-2020> <21:57:56>              |Error|         MaxErr       Wt(A-DIIS)
 <Oct20-2020> <21:57:56>      1      0.14102524      0.02747762
 <Oct20-2020> <21:57:58>      2      0.38076160      0.05600330    100.0
 <Oct20-2020> <21:58:00>      3      0.16217623      0.02891823    100.0
 <Oct20-2020> <21:58:01>      4      0.31500570      0.04953863    100.0
 <Oct20-2020> <21:58:03>      5      0.16424085      0.02029672     19.5
 <Oct20-2020> <21:58:05>      6      0.09977728      0.01547661     14.6
 <Oct20-2020> <21:58:06>      7      0.06317655      0.01033808      9.4
 <Oct20-2020> <21:58:08>      8      0.03008632      0.00443369      3.5
 <Oct20-2020> <21:58:09>      9      0.01029337      0.00153468      0.5
 <Oct20-2020> <21:58:11>     10      0.00464830      0.00068669      0.0
 <Oct20-2020> <21:58:13>     11      0.00182443      0.00026152      0.0
 <Oct20-2020> <21:58:14>     12      0.00071446      0.00014648      0.0
 <Oct20-2020> <21:58:16>     13      0.00057201      0.00010538      0.0
 <Oct20-2020> <21:58:17>     14      0.00017978      0.00002844      0.0
 <Oct20-2020> <21:58:19>     15      0.00010867      0.00001746      0.0
 <Oct20-2020> <21:58:20>     16      0.00003198      0.00000402      0.0
 <Oct20-2020> <21:58:22>     17      0.00001478      0.00000253      0.0
 <Oct20-2020> <21:58:23>     18      0.00001275      0.00000169      0.0
 <Oct20-2020> <21:58:25>     19      0.00001038      0.00000191      0.0
 <Oct20-2020> <21:58:26>     20      0.00000332      0.00000057      0.0
 <Oct20-2020> <21:58:27>  SCF converged
 <Oct20-2020> <21:58:28>     21      0.00000364      0.00000063      0.0
 <Oct20-2020> <21:58:29>  >>>> TOTEN
 <Oct20-2020> <21:58:33>  QTAIM: determining topology...
 <Oct20-2020> <21:58:36>  >>>> POPAN
 <Oct20-2020> <21:58:36>  >>>> DEBYE
 <Oct20-2020> <21:58:36>  >>>> AMETS
 <Oct20-2020> <21:58:36>  >>>> POPUL
 <Oct20-2020> <21:58:36>   Bond Energy          -6.67907438 a.u.
 <Oct20-2020> <21:58:36>   Bond Energy        -181.74686126 eV
 <Oct20-2020> <21:58:36>   Bond Energy       -4191.18       kcal/mol
 <Oct20-2020> <21:58:36>  >>>> ENHESS
 <Oct20-2020> <21:58:43>  === NUCLEUS:     1
 <Oct20-2020> <22:00:28>  === NUCLEUS:     2
 <Oct20-2020> <22:02:05>  === NUCLEUS:     3
 <Oct20-2020> <22:03:48>  === NUCLEUS:     4
 <Oct20-2020> <22:05:25>  === NUCLEUS:     5
 <Oct20-2020> <22:06:56>  === NUCLEUS:     6
 <Oct20-2020> <22:08:26>  === NUCLEUS:     7
 <Oct20-2020> <22:09:58>  === NUCLEUS:     8
 <Oct20-2020> <22:11:28>  === NUCLEUS:     9
 <Oct20-2020> <22:12:57>  === NUCLEUS:    10
 <Oct20-2020> <22:14:30>  === NUCLEUS:    11
 <Oct20-2020> <22:16:01>  === NUCLEUS:    12
 <Oct20-2020> <22:17:30>  === NUCLEUS:    13
 <Oct20-2020> <22:19:01>  === NUCLEUS:    14
 <Oct20-2020> <22:20:31>  === NUCLEUS:    15
 <Oct20-2020> <22:22:02>  === NUCLEUS:    16
 <Oct20-2020> <22:23:33>  === NUCLEUS:    17
 <Oct20-2020> <22:25:05>  === NUCLEUS:    18
 <Oct20-2020> <22:26:34>  === NUCLEUS:    19
 <Oct20-2020> <22:28:01>  === NUCLEUS:    20
 <Oct20-2020> <22:29:34>  === NUCLEUS:    21
 <Oct20-2020> <22:31:07>  >>>> CALC_HESS_PMAT
 <Oct20-2020> <22:31:22>  >>>> CALC_HESS_WMAT
 <Oct20-2020> <22:31:25>  NORMAL TERMINATION
 <Oct20-2020> <22:31:25>  END
