
 *******************************************************************************
 *                                                                             *
 *  -------------------------------------                                      *
 *   Amsterdam Density Functional  (ADF)         2019                          *
 *  -------------------------------------                                      *
 *                                               r79301 2019-11-09             *
 *                                                                             *
 *                                                                             *
 *                            =====================                            *
 *                            |                   |                            *
 *                            |     D I R A C     |                            *
 *                            |                   |                            *
 *                            =====================                            *
 *                                                                             *
 *                                                                             *
 *   Online information and documentation:  https://www.scm.com/support/       *
 *   E-mail:  support@scm.com   info@scm.com                                   *
 *                                                                             *
 *   Scientific publications using ADF results must be properly referenced     *
 *   See the User Manuals (or the web site) for recommended citations          *
 *   The terms and conditions of the End User License Agreement apply to       *
 *   the use of ADF, https://www.scm.com/license-terms/                        *
 *                                                                             *
 **********************  x86_64_linux_intel / intelmpi  ************************
 
 
 
  
 DIRAC 2019  RunTime: Sep08-2020 04:16:40  Nodes: 1  Procs: 1

 Temporary files are created in /scratch/kid_0.1895643517 (0x58465342)

1
 HYDROGEN ATOM RELATIVISTIC, Point Nuc, A and c from libtc   
 N J RN H ZN XION ANUC CLIGHT
 5000    1100.00000000197.36710137  1.00000000  0.00000000    1.007825  0.1370360E+03
  PH   PHI     EPS        DEL        DELRVR
  0.30  0.30     2500.00  0.00001000  0.00001000
 IDIRC  NC1  NDEBU NPRIN  IPUN IRCOR IWCOR
   1   300     0     0     0     0     0
   XALPHA      XLATTER      RNUC
  0.70000000  0.00000000  0.00000000 Point Charge
   XN   XL   XJ      XE          XZ      XDELL
  1.0  0.0  0.5      -1.000       1.000     0.00000
 ICORP=  0  NPCL=  0  DEMP=0.00  PEPS=0.000000
 R(1)=  0.1000000E-08 D=  0.1005080E+01 RNUC=  0.0000000E+00
 converged at cycle   32  DENSITY AVERAGING    0.2400
  MAXIMUM ERROR IN R.V(R) IS   0.79874357E-05
 Q,EY,EV,EZ,ESUM,ETOT,RHO  0.100000E+01 -0.266614E+00 -0.619969E+00 -0.910779E+00 -0.203940E+00 -0.415998E+00  0.337036E-17


 DIRAC CALCULATION
1                    HYDROGEN ATOM RELATIVISTIC, Point Nuc, A and c from libtc


 EXCHANGE COEFFICIENT=  0.7000000           TAIL CORRECTION=  0.           NUCLEAR RADIUS=  0.000E+00
0                       ORBITAL    N    L    J     ELECTRONS     EIGENVALUE                DELTA OF EIGENV.

                          1S1/2  1.0  0.0  0.5     1.000       -0.2039397E+00                 0.2720093E-06


                                        NUCLEAR CHARGE=    1.000000
                            INTEGRAL OF CHARGE DENSITY=    1.000000
                           SUM OF THE ORBITAL ENERGIES=     -0.2039
                                          TOTAL ENERGY=     -0.4160
                                        KINETIC ENERGY=      0.4160
                             NUCLEAR ATTRACTION ENERGY=     -0.9108
                             ELECTRON REPULSION ENERGY=      0.2787
                                       EXCHANGE ENERGY=     -0.2000

 *******************************************************************************

                             D I R A C   E X I T
 NORMAL TERMINATION



 =================
 Timing Statistics
 =================
  
 Total Used :                     CPU=        0.06      System=        0.00     Elapsed=        0.07

 Calls  Section                     ( Mean, Percentage )
 ---------------------------------------------------------------------------------------------------
     2  ><      ................      0.00    0.00             0.00    0.00             0.00    0.01
     1  EXIT PROCEDURE .........      0.06  100.00             0.00  100.00             0.07   99.99


 Currently Open Files (EXIT00)
 ====================

 Unit    Access Format  Status   Type       Ident (file)
 -------------------------------------------------------
   3      SEQ    FORM   TRANSP  NORMAL      LOGFILE
                                          ( logfile )
 
Create H   file=TZP-H
XC
  GGA PBE
End
relativistic ZORA
Corepotentials t12.rel
End

 *******************************************************************************
 *                                                                             *
 *  -------------------------------------                                      *
 *   Amsterdam Density Functional  (ADF)         2019                          *
 *  -------------------------------------                                      *
 *                                               r79301 2019-11-09             *
 *                                                                             *
 *                                                                             *
 *                              =================                              *
 *                              |               |                              *
 *                              |     A D F     |                              *
 *                              |               |                              *
 *                              =================                              *
 *                                                                             *
 *                                                                             *
 *   Online information and documentation:  https://www.scm.com/support/       *
 *   E-mail:  support@scm.com   info@scm.com                                   *
 *                                                                             *
 *   Scientific publications using ADF results must be properly referenced     *
 *   See the User Manuals (or the web site) for recommended citations          *
 *   The terms and conditions of the End User License Agreement apply to       *
 *   the use of ADF, https://www.scm.com/license-terms/                        *
 *                                                                             *
 **********************  x86_64_linux_intel / intelmpi  ************************
 
 
 
  
 ADF 2019  RunTime: Sep08-2020 04:16:40  Nodes: 1  Procs: 1

 Temporary files are created in /scratch/kid_0.1467791324 (0x58465342)

 Hydrogen (TZP)



 ===========================
 A T T A C H E D   F I L E S
 ===========================
  
 CREATE - Data File:    TZP-H
                        Hydrogen (TZP)
 Core Potentials:
         file : t12.rel



 ===============================
 M O D E L   P A R A M E T E R S
 ===============================
  
 DENSITY FUNCTIONAL POTENTIAL (scf)
    LDA:                               PW92                                    == Not Default ==
    Gradient Corrections:              PBEc PBEx                               == Not Default ==

 SPIN  (restricted / unrestr.)
    Molecule:                          Restricted                               

 OTHER ASPECTS
    Relativistic Corrections:          scalar (ZORA,MAPA)                      == Not Default ==

    Nuclear Charge Density Model:      Point Charge Nuclei                      
    Core Treatment:                    Frozen Orbital(s)                        

    Hyperfine or Zeeman Interaction:   ---                                      



 =====================================
 S Y M M E T R Y ,   E L E C T R O N S
 =====================================
  
 Symmetry: ATOM

 Irreducible Representations, including subspecies
 -------------------------------------------------
 S
 P:x  P:y  P:z
 D:z2  D:x2-y2  D:xy  D:xz  D:yz
 F:z3  F:z  F:xyz  F:z2x  F:z2y  F:x  F:y


 Configuration of Valence Electrons
 ==================================

          Occupation Numbers
          -------------------------------------------------
 S        1
 P        0
 D        0
 F        0
          -------------------------------------------------

 Total:   1

 Net Charge: 0 (Nuclei minus Electrons)

 Preset values for MO occupations will be applied through SCF cycle no. 1000000
 Thereafter, the program will assign electrons to MOs that are spatially
 similar to the occupied MOs in a "reference" cycle ("KeepOrbitals").
 The reference cycle is always the PREVIOUS cycle: it will evolve with
 the SCF procedure.



 ================================
 (Slater-type)  F U N C T I O N S  ***  (Basis and Fit)  ***
 ================================
  

 Atom Type    1  (H)
 ==============

 Valence Basis Sets:   4
 -----------------------
   1 S    0.690000
   1 S    0.920000
   1 S    1.580000
   2 P    1.250000


 BAS: List of all Elementary Cartesian Basis Functions
 =====================================================

 The numbering in the list below (to the right of the function characteristics) is referred
 to in print-outs of MO eigenvectors and Mulliken populations in the BAS representation
 (as contrasted to the SFO representation).

 Notes:
 1. The functions are characterized by a polynomial prefactor (powers of x,y,z and r) and
    an exponential decay factor alpha.
 2. Since the basis sets are specific for an atom TYPE, the individual functions occur on
    all atoms of that type.
 3. The word 'Core' in the left margin signals that it is a Core Function (CF) : not a
    degree of freedom in the valence set, but only used to ensure orthogonalization of
    the other valence basis functions on the frozen Core Orbitals.


 (power of) X  Y  Z  R     Alpha  on Atom
            ==========     =====     ==========

 H                                    1
                                  ---------------------------------------------------------------------------
            0  0  0  0     0.690      1
            0  0  0  0     0.920      2
            0  0  0  0     1.580      3
            1  0  0  0     1.250      4
            0  1  0  0     1.250      5
            0  0  1  0     1.250      6

 Total number of charge fitting functions (nprimf)        50
 Total number of Cartesian basis functions (naos)          6
 Total number of Cartesian core functions  (ncos)          0



 BAS: List of all Elementary Cartesian Basis Functions
 =====================================================

 The numbering in the list below (to the right of the function characteristics) is referred
 to in print-outs of MO eigenvectors and Mulliken populations in the BAS representation
 (as contrasted to the SFO representation).

 Notes:
 1. The functions are characterized by a polynomial prefactor (powers of x,y,z and r) and
    an exponential decay factor alpha.
 2. Since the basis sets are specific for an atom TYPE, the individual functions occur on
    all atoms of that type.
 3. The word 'Core' in the left margin signals that it is a Core Function (CF) : not a
    degree of freedom in the valence set, but only used to ensure orthogonalization of
    the other valence basis functions on the frozen Core Orbitals.


 (power of) X  Y  Z  R     Alpha  on Atom
            ==========     =====     ==========

 H                                    1
                                  ---------------------------------------------------------------------------
            0  0  0  0     0.690      1
            0  0  0  0     0.920      2
            0  0  0  0     1.580      3
            1  0  0  0     1.250      4
            0  1  0  0     1.250      5
            0  0  1  0     1.250      6
1
 ***************************************************************************************************



                                              ***********************
                                              *  T E C H N I C A L  *
                                              ***********************
  



 =============================================================
 P A R A L L E L I Z A T I O N  and  V E C T O R I Z A T I O N
 =============================================================
  
 Nr of parallel processes:                                1
 Maximum vector length in NumInt loops:                 128



 =====================
 S C F   U P D A T E S
 =====================
  
 Max. nr. of cycles:                               300
 Convergence criterion:                              0.0000000100
   secondary criterion:                              0.0000000100

 Mix parameter (when DIIS does not apply):           0.2000000000
 Special mix parameter for the first cycle:          1.0000000000
 Mixed ADIIS+SDIIS will be used                  
    Max number of expansion vectors:                10
    Pure ADIIS when Max([F,P]) is above              0.1000000000
    Pure SDIIS when Max([F,P]) is below              0.0010000000
 Automatic ElectronSmearing (in case of problematic SCF convergence) disabled



 =================
 P R E C I S I O N  ***  (General: NumInt, NeglectFunctionTails, ...)  ***
 =================
  

 NumInt:           Target precision:                12.0000000000
 -------           Initial precision:               10.0000000000
                   Min. precision (optimization):   10.0000000000

 Neglect Functions:          Basis functions:        0.1000000000E-13
 ------------------          Fit functions:          0.1000000000E-13



 ===========================
 L I N E A R   S C A L I N G
 ===========================
  

 Cut-off radii density fit:                        0.1000000000E-97
 Overlap cut-off criterion AO matrix elements:     0.1000000000E-97
 Cut-offs for Coulomb potential and fitted density:0.1000000000E-97
 Cut-off criterion for Coulomb multipole terms:    0.1000000000E-97
 Progressive Convergence parameter:                 0.000000000    
1
 ***************************************************************************************************



                                            ***************************
                                            *  C O M P U T A T I O N  *
                                            ***************************
  

 Number of elements of the density matrix on this node (used, total):        21        21



 ===========================================
 Numerical Integration : Fuzzy Cells (Becke)
 ===========================================
  
 Becke grid quality: VERYGOOD       
  
 Lebedev angular grid order:             min:  13 max:  41
 Nr. of radial points:                   min:  64 max:  64

 Total nr. of points:         64
 Nr. of blocks:                1
 Block length:                64
 Nr. of dummy points:          0


 Test of Precision of the Numerical Integration Grid
 ===================================================

 Integral of the Total Core Density:                   0.00000000000000



 ========================
 Density Fitting (zlmFit)
 ========================
  
 ZlmFit Fit Quality: VERYGOOD       
  
 Max L-expansion:                        min:   0 max:   0
 Nr. of radial interpolation points:     min: 120 max: 120



 =====
 S C F  ***  ScaSCF  ***
 =====
  

 CYCLE    1
 SCF Error: norm([F,P])=      0.000000000000, max([F,P])=      0.000000000000
 orbitals (Q,E):
 ---------------
 S :1...3            ( 1.00    -0.5000)  ( 0.00    -0.0900)  ( 0.00     1.2936)
 P :1...1            ( 0.00     0.1562)

 CYCLE    2
 SCF Error: norm([F,P])=      0.031537872292, max([F,P])=      0.030110494752
 orbitals (Q,E):
 ---------------
 S :1...2            ( 1.00    -0.2218)  ( 0.00     0.1019)
 P :1...1            ( 0.00     0.4189)

 CYCLE    3
  SDIIS (wt  0.000):  0.1996  0.8004
 A-DIIS (wt  1.000):  0.0000  1.0000
  DIIS coefficients:  0.0000  1.0000
 SCF Error: norm([F,P])=      0.008617989401, max([F,P])=      0.008343029399
 orbitals (Q,E):
 ---------------
 S :1...2            ( 1.00    -0.2422)  ( 0.00     0.0889)
 P :1...1            ( 0.00     0.4024)

 CYCLE    4
  SDIIS (wt  0.993):  0.1666  0.8334
 A-DIIS (wt  0.007):  0.0000  1.0000
  DIIS coefficients:  0.1654  0.8346
 SCF Error: norm([F,P])=      0.001732350026, max([F,P])=      0.001718616814
 orbitals (Q,E):
 ---------------
 S :1...2            ( 1.00    -0.2385)  ( 0.00     0.0908)
 P :1...1            ( 0.00     0.4054)

 CYCLE    5
  SDIIS (wt  1.000):  0.0236  0.9764
  DIIS coefficients:  0.0236  0.9764
 SCF Error: norm([F,P])=      0.000043673449, max([F,P])=      0.000039769875
 orbitals (Q,E):
 ---------------
 S :1...2            ( 1.00    -0.2386)  ( 0.00     0.0908)
 P :1...1            ( 0.00     0.4054)

 CYCLE    6
  SDIIS (wt  1.000): -0.0577  1.0577
  DIIS coefficients: -0.0577  1.0577
 SCF Error: norm([F,P])=      0.000002383805, max([F,P])=      0.000002158128
 orbitals (Q,E):
 ---------------
 S :1...2            ( 1.00    -0.2386)  ( 0.00     0.0908)
 P :1...1            ( 0.00     0.4054)

 CYCLE    7
  SDIIS (wt  1.000): -0.0032  1.0032
  DIIS coefficients: -0.0032  1.0032
 SCF Error: norm([F,P])=      0.000000007721, max([F,P])=      0.000000007228
 orbitals (Q,E):
 ---------------
 S :1...2            ( 1.00    -0.2386)  ( 0.00     0.0908)
 P :1...1            ( 0.00     0.4054)

 SCF CONVERGED

 CYCLE    8
1
 ***************************************************************************************************



                                                *******************
                                                *  R E S U L T S  *
                                                *******************
  
 *** Using FIT density in Focky
  SDIIS (wt  1.000):  0.0192  0.9808
  DIIS coefficients:  0.0192  0.9808
 SCF Error: norm([F,P])=      0.000000000151, max([F,P])=      0.000000000141

 Scaled ZORA Orbital Energies, per Irrep and Spin:
 =================================================
                        Occup              E (au)              E (eV)       Diff (eV) with prev. cycle
                        -----      --------------------        ------       --------------------------
 S
               1        1.000     -0.23861775226993E+00        -6.493               7.43E-09
               2        0.000      0.90791701709251E-01         2.471
               3        0.000      0.15217530108908E+01        41.409
 P
               1        0.000      0.40537978060393E+00        11.031


 Partially Occupied:
               1 S                -0.23861775226993E+00
  
 LUMO :        2 S                 0.90791701709251E-01
  


 Orbital Energies, all Irreps
 ========================================

 Irrep        no.  (spin)   Occup              E (au)                E (eV)
 ---------------------------------------------------------------------------
 S             1             1.00       -0.23861775226993E+00        -6.4931
 S             2             0.00        0.90791701709251E-01         2.4706
 P             1             0.00        0.40537978060393E+00        11.0309
 S             3             0.00        0.15217530108908E+01        41.4090


 All Electron Calculation, thus no Orbital Energies of the Core Orbitals are calculated



 =======================================
 M U L L I K E N   P O P U L A T I O N S
 =======================================
  
 The survey below gives for each atom:
 a) the total charge (Z minus electrons)
 b) the net spin polarization (nr of electrons spin-A minus spin-B)
 c) for each spin the atomic electron valence density (integrated) per L-value.

 Atom              Charge    Spin density          S         P         D         F
 ----              ------    ------------       ------    ------    ------    ------
 1 H              -0.0000                       1.0000    0.0000    0.0000    0.0000

 Populations of individual BAS functions
 ----------------------------------------
 1 H            0.2104  0.6788  0.1107  0.0000  0.0000  0.0000

 Gross Charges per Atom (Z minus electrons)
 ==========================================
            -0.0000
 Net Total: -0.00000000



 =======================================================================
 Electrostatic potential at the Nuclei due to electrons and other nuclei
 =======================================================================
  
         Atom                  Potential
         ----                  ---------
     1)   H                   0.94468022
 
 
 ========================
 No memory problems found
 ========================
 
 Maximum number of active allocate calls:         306
 
 *******************************************************************************

                             A D F   E X I T
 NORMAL TERMINATION



 =================
 Timing Statistics
 =================
  
 Total Used :                     CPU=        0.34      System=        0.02     Elapsed=        0.39

 Calls  Section                     ( Mean, Percentage )
 ---------------------------------------------------------------------------------------------------
     3  ><      ................      0.00    1.18             0.00    0.00             0.00    1.04
     1  INIT    ................      0.06   18.82             0.01   40.00             0.08   20.37
     1  GEOMET  ................      0.02    4.71             0.01   40.00             0.02    6.03
     1  INPUTA  ................      0.00    0.00             0.00    0.00             0.00    0.89
     1  MAINSY  ................      0.01    3.53             0.00    0.00             0.01    3.29
     1  SYMFIT  ................      0.00    1.18             0.00    0.00             0.00    0.45
     1  CORORT  ................      0.00    0.00             0.00    0.00             0.00    0.32
     1  SYMORB  ................      0.00    0.00             0.00    0.00             0.00    0.19
     1  CLSMAT  ................      0.00    1.18             0.00    0.00             0.01    1.37
     1  ORTHON  ................      0.00    1.18             0.00    0.00             0.00    1.25
     1  GENPT   ................      0.00    1.18             0.00   20.00             0.01    3.28
     1  PTBAS   ................      0.01    2.35             0.00    0.00             0.01    1.35
     8  FOCKY   ................      0.02   49.41             0.00    0.00             0.02   44.50
     8  FOCKTR  ................      0.00    3.53             0.00    0.00             0.00    1.23
     8  SDIIS   ................      0.00    3.53             0.00    0.00             0.00    5.69
     1  COREPS  ................      0.01    3.53             0.00    0.00             0.01    3.67
     1  POPAN   ................      0.00    1.18             0.00    0.00             0.00    1.23
     1  DEBYE   ................      0.00    0.00             0.00    0.00             0.00    0.48
     1  EXIT PROCEDURE .........      0.01    3.53             0.00    0.00             0.01    3.36


 Currently Open Files (EXIT00)
 ====================

 Unit    Access Format  Status   Type       Ident (file)
 -------------------------------------------------------
   3      SEQ    FORM   TRANSP  NORMAL      LOGFILE
                                          ( logfile )

 ***************************************************************************************************
 (LOGFILE)
 <Sep08-2020> <04:16:40>  DIRAC 2019  RunTime: Sep08-2020 04:16:40  Nodes: 1  Procs: 1
 <Sep08-2020> <04:16:40>  NORMAL TERMINATION
 <Sep08-2020> <04:16:40>  END
 <Sep08-2020> <04:16:40>  ADF 2019  RunTime: Sep08-2020 04:16:40  Nodes: 1  Procs: 1
 <Sep08-2020> <04:16:40>  Hydrogen (TZP)
 <Sep08-2020> <04:16:40>  RunType   : CREATE
 <Sep08-2020> <04:16:40>  Net Charge: 0 (Nuclei minus Electrons)
 <Sep08-2020> <04:16:40>  Symmetry  : ATOM
  Coordinates
    Atom         X           Y           Z   (Angstrom)
    1.H         0.000000    0.000000    0.000000
 <Sep08-2020> <04:16:40>  >>>> CORORT
 <Sep08-2020> <04:16:40>  >>>> CLSMAT
 <Sep08-2020> <04:16:40>  >>>> ORTHON
 <Sep08-2020> <04:16:40>  >>>> GENPT
 <Sep08-2020> <04:16:40>  Block Length=  64
 <Sep08-2020> <04:16:40>  >>>> PTBAS
 <Sep08-2020> <04:16:40>  >>>> CYCLE
 <Sep08-2020> <04:16:40>              |Error|         MaxErr       Wt(A-DIIS)
 <Sep08-2020> <04:16:40>      1      0.00000000      0.00000000
 <Sep08-2020> <04:16:40>      2      0.03153787      0.03011049
 <Sep08-2020> <04:16:41>      3      0.00861799      0.00834303    100.0
 <Sep08-2020> <04:16:41>      4      0.00173235      0.00171862      0.7
 <Sep08-2020> <04:16:41>      5      0.00004367      0.00003977      0.0
 <Sep08-2020> <04:16:41>      6      0.00000238      0.00000216      0.0
 <Sep08-2020> <04:16:41>      7      0.00000001      0.00000001      0.0
 <Sep08-2020> <04:16:41>  SCF converged
 <Sep08-2020> <04:16:41>      8      0.00000000      0.00000000      0.0
 <Sep08-2020> <04:16:41>  >>>> POPAN
 <Sep08-2020> <04:16:41>  >>>> DEBYE
 <Sep08-2020> <04:16:41>  NORMAL TERMINATION
 <Sep08-2020> <04:16:41>  END

 *******************************************************************************
 *                                                                             *
 *  -------------------------------------                                      *
 *   Amsterdam Density Functional  (ADF)         2019                          *
 *  -------------------------------------                                      *
 *                                               r79301 2019-11-09             *
 *                                                                             *
 *                                                                             *
 *                            =====================                            *
 *                            |                   |                            *
 *                            |     D I R A C     |                            *
 *                            |                   |                            *
 *                            =====================                            *
 *                                                                             *
 *                                                                             *
 *   Online information and documentation:  https://www.scm.com/support/       *
 *   E-mail:  support@scm.com   info@scm.com                                   *
 *                                                                             *
 *   Scientific publications using ADF results must be properly referenced     *
 *   See the User Manuals (or the web site) for recommended citations          *
 *   The terms and conditions of the End User License Agreement apply to       *
 *   the use of ADF, https://www.scm.com/license-terms/                        *
 *                                                                             *
 **********************  x86_64_linux_intel / intelmpi  ************************
 
 
 
  
 DIRAC 2019  RunTime: Sep08-2020 04:16:41  Nodes: 1  Procs: 1

 Temporary files are created in /scratch/kid_0.219689057 (0x58465342)

1
 OXYGEN ATOM 1s CORE RELATIVISTIC, Point Nuc, A and c from li
 N J RN H ZN XION ANUC CLIGHT
 5000    4100.00000000197.36710137  8.00000000  0.00000000   15.994914  0.1370360E+03
  PH   PHI     EPS        DEL        DELRVR
  0.30  0.30     2500.00  0.00001000  0.00001000
 IDIRC  NC1  NDEBU NPRIN  IPUN IRCOR IWCOR
   1   300     0     0     0     0     1
   XALPHA      XLATTER      RNUC
  0.70000000  0.00000000  0.00000000 Point Charge
   XN   XL   XJ      XE          XZ      XDELL
  1.0  0.0  0.5      -5.000       2.000     0.00000
  2.0  0.0  0.5      -1.000       2.000     0.00000
  2.0  1.0  0.5      -1.000       2.000     0.00000
  2.0  1.0  1.5      -1.000       2.000     0.00000
 ICORP=  0  NPCL=  0  DEMP=0.00  PEPS=0.000000
 R(1)=  0.1000000E-08 D=  0.1005080E+01 RNUC=  0.0000000E+00
 converged at cycle   28  DENSITY AVERAGING    0.2400
  MAXIMUM ERROR IN R.V(R) IS   0.81125670E-05
 Q,EY,EV,EZ,ESUM,ETOT,RHO  0.800000E+01 -0.101247E+02 -0.114961E+03 -0.177573E+03 -0.405053E+02 -0.743427E+02  0.414766E-14


 DIRAC CALCULATION
1                    OXYGEN ATOM 1s CORE RELATIVISTIC, Point Nuc, A and c from libtc


 EXCHANGE COEFFICIENT=  0.7000000           TAIL CORRECTION=  0.           NUCLEAR RADIUS=  0.000E+00
0                       ORBITAL    N    L    J     ELECTRONS     EIGENVALUE                DELTA OF EIGENV.

                          1S1/2  1.0  0.0  0.5     2.000       -0.1880014E+02                 0.7264358E-06
                          2S1/2  2.0  0.0  0.5     2.000       -0.8412236E+00                 0.5932752E-05
                          2P1/2  2.0  1.0  0.5     2.000       -0.3063203E+00                 0.5998471E-05
                          2P3/2  2.0  1.0  1.5     2.000       -0.3049609E+00                 0.5986971E-05


                                        NUCLEAR CHARGE=    8.000000
                            INTEGRAL OF CHARGE DENSITY=    8.000000
                           SUM OF THE ORBITAL ENERGIES=    -40.5053
                                          TOTAL ENERGY=    -74.3427
                                        KINETIC ENERGY=     74.4552
                             NUCLEAR ATTRACTION ENERGY=   -177.5730
                             ELECTRON REPULSION ENERGY=     36.3686
                                       EXCHANGE ENERGY=     -7.5935

 *******************************************************************************

                             D I R A C   E X I T
 NORMAL TERMINATION



 =================
 Timing Statistics
 =================
  
 Total Used :                     CPU=        0.10      System=        0.00     Elapsed=        0.11

 Calls  Section                     ( Mean, Percentage )
 ---------------------------------------------------------------------------------------------------
     2  ><      ................      0.00    0.00             0.00    0.00             0.00    0.01
     1  EXIT PROCEDURE .........      0.10  100.00             0.00  100.00             0.11   99.99


 Currently Open Files (EXIT00)
 ====================

 Unit    Access Format  Status   Type       Ident (file)
 -------------------------------------------------------
   3      SEQ    FORM   TRANSP  NORMAL      LOGFILE
                                          ( logfile )
 
Create O   file=TZP-O.1s
XC
  GGA PBE
End
relativistic ZORA
Corepotentials t12.rel
End

 *******************************************************************************
 *                                                                             *
 *  -------------------------------------                                      *
 *   Amsterdam Density Functional  (ADF)         2019                          *
 *  -------------------------------------                                      *
 *                                               r79301 2019-11-09             *
 *                                                                             *
 *                                                                             *
 *                              =================                              *
 *                              |               |                              *
 *                              |     A D F     |                              *
 *                              |               |                              *
 *                              =================                              *
 *                                                                             *
 *                                                                             *
 *   Online information and documentation:  https://www.scm.com/support/       *
 *   E-mail:  support@scm.com   info@scm.com                                   *
 *                                                                             *
 *   Scientific publications using ADF results must be properly referenced     *
 *   See the User Manuals (or the web site) for recommended citations          *
 *   The terms and conditions of the End User License Agreement apply to       *
 *   the use of ADF, https://www.scm.com/license-terms/                        *
 *                                                                             *
 **********************  x86_64_linux_intel / intelmpi  ************************
 
 
 
  
 ADF 2019  RunTime: Sep08-2020 04:16:41  Nodes: 1  Procs: 1

 Temporary files are created in /scratch/kid_0.566305563 (0x58465342)

 Oxygen (TZP, 1s frozen)



 ===========================
 A T T A C H E D   F I L E S
 ===========================
  
 CREATE - Data File:    TZP-O.1s
                        Oxygen (TZP, 1s frozen)
 Core Potentials:
         file : t12.rel



 ===============================
 M O D E L   P A R A M E T E R S
 ===============================
  
 DENSITY FUNCTIONAL POTENTIAL (scf)
    LDA:                               PW92                                    == Not Default ==
    Gradient Corrections:              PBEc PBEx                               == Not Default ==

 SPIN  (restricted / unrestr.)
    Molecule:                          Restricted                               

 OTHER ASPECTS
    Relativistic Corrections:          scalar (ZORA,MAPA)                      == Not Default ==

    Nuclear Charge Density Model:      Point Charge Nuclei                      
    Core Treatment:                    Frozen Orbital(s)                        

    Hyperfine or Zeeman Interaction:   ---                                      



 =====================================
 S Y M M E T R Y ,   E L E C T R O N S
 =====================================
  
 Symmetry: ATOM

 Irreducible Representations, including subspecies
 -------------------------------------------------
 S
 P:x  P:y  P:z
 D:z2  D:x2-y2  D:xy  D:xz  D:yz
 F:z3  F:z  F:xyz  F:z2x  F:z2y  F:x  F:y


 Configuration of Valence Electrons
 ==================================

          Occupation Numbers
          -------------------------------------------------
 S        2
 P        4
 D        0
 F        0
          -------------------------------------------------

 Total:   6

 Net Charge: 0 (Nuclei minus Electrons)

 Preset values for MO occupations will be applied through SCF cycle no. 1000000
 Thereafter, the program will assign electrons to MOs that are spatially
 similar to the occupied MOs in a "reference" cycle ("KeepOrbitals").
 The reference cycle is always the PREVIOUS cycle: it will evolve with
 the SCF procedure.



 ================================
 (Slater-type)  F U N C T I O N S  ***  (Basis and Fit)  ***
 ================================
  

 Atom Type    1  (O)
 ==============

 Valence Basis Sets:   8
 -----------------------
   1 S    7.360000
   2 S    1.720000
   2 S    2.880000
   2 S    7.580000
   2 P    1.120000
   2 P    2.080000
   2 P    4.080000
   3 D    2.000000

 Frozen Core Shells
 ------------------
    S:  1


 BAS: List of all Elementary Cartesian Basis Functions
 =====================================================

 The numbering in the list below (to the right of the function characteristics) is referred
 to in print-outs of MO eigenvectors and Mulliken populations in the BAS representation
 (as contrasted to the SFO representation).

 Notes:
 1. The functions are characterized by a polynomial prefactor (powers of x,y,z and r) and
    an exponential decay factor alpha.
 2. Since the basis sets are specific for an atom TYPE, the individual functions occur on
    all atoms of that type.
 3. The word 'Core' in the left margin signals that it is a Core Function (CF) : not a
    degree of freedom in the valence set, but only used to ensure orthogonalization of
    the other valence basis functions on the frozen Core Orbitals.


 (power of) X  Y  Z  R     Alpha  on Atom
            ==========     =====     ==========

 O                                    1
                                  ---------------------------------------------------------------------------
    Core    0  0  0  0     7.360      1
            0  0  0  1     1.720      2
            0  0  0  1     2.880      3
            0  0  0  1     7.580      4
            1  0  0  0     1.120      5
            0  1  0  0     1.120      6
            0  0  1  0     1.120      7
            1  0  0  0     2.080      8
            0  1  0  0     2.080      9
            0  0  1  0     2.080     10
            1  0  0  0     4.080     11
            0  1  0  0     4.080     12
            0  0  1  0     4.080     13
            2  0  0  0     2.000     14
            1  1  0  0     2.000     15
            1  0  1  0     2.000     16
            0  2  0  0     2.000     17
            0  1  1  0     2.000     18
            0  0  2  0     2.000     19

 Total number of charge fitting functions (nprimf)        82
 Total number of Cartesian basis functions (naos)         19
 Total number of Cartesian core functions  (ncos)          1



 BAS: List of all Elementary Cartesian Basis Functions
 =====================================================

 The numbering in the list below (to the right of the function characteristics) is referred
 to in print-outs of MO eigenvectors and Mulliken populations in the BAS representation
 (as contrasted to the SFO representation).

 Notes:
 1. The functions are characterized by a polynomial prefactor (powers of x,y,z and r) and
    an exponential decay factor alpha.
 2. Since the basis sets are specific for an atom TYPE, the individual functions occur on
    all atoms of that type.
 3. The word 'Core' in the left margin signals that it is a Core Function (CF) : not a
    degree of freedom in the valence set, but only used to ensure orthogonalization of
    the other valence basis functions on the frozen Core Orbitals.


 (power of) X  Y  Z  R     Alpha  on Atom
            ==========     =====     ==========

 O                                    1
                                  ---------------------------------------------------------------------------
    Core    0  0  0  0     7.360      1
            0  0  0  1     1.720      2
            0  0  0  1     2.880      3
            0  0  0  1     7.580      4
            1  0  0  0     1.120      5
            0  1  0  0     1.120      6
            0  0  1  0     1.120      7
            1  0  0  0     2.080      8
            0  1  0  0     2.080      9
            0  0  1  0     2.080     10
            1  0  0  0     4.080     11
            0  1  0  0     4.080     12
            0  0  1  0     4.080     13
            2  0  0  0     2.000     14
            1  1  0  0     2.000     15
            1  0  1  0     2.000     16
            0  2  0  0     2.000     17
            0  1  1  0     2.000     18
            0  0  2  0     2.000     19
1
 ***************************************************************************************************



                                              ***********************
                                              *  T E C H N I C A L  *
                                              ***********************
  



 =============================================================
 P A R A L L E L I Z A T I O N  and  V E C T O R I Z A T I O N
 =============================================================
  
 Nr of parallel processes:                                1
 Maximum vector length in NumInt loops:                 128



 =====================
 S C F   U P D A T E S
 =====================
  
 Max. nr. of cycles:                               300
 Convergence criterion:                              0.0000000100
   secondary criterion:                              0.0000000100

 Mix parameter (when DIIS does not apply):           0.2000000000
 Special mix parameter for the first cycle:          1.0000000000
 Mixed ADIIS+SDIIS will be used                  
    Max number of expansion vectors:                10
    Pure ADIIS when Max([F,P]) is above              0.1000000000
    Pure SDIIS when Max([F,P]) is below              0.0010000000
 Automatic ElectronSmearing (in case of problematic SCF convergence) disabled



 =================
 P R E C I S I O N  ***  (General: NumInt, NeglectFunctionTails, ...)  ***
 =================
  

 NumInt:           Target precision:                12.0000000000
 -------           Initial precision:               10.0000000000
                   Min. precision (optimization):   10.0000000000

 Neglect Functions:          Basis functions:        0.1000000000E-13
 ------------------          Fit functions:          0.1000000000E-13



 ===========================
 L I N E A R   S C A L I N G
 ===========================
  

 Cut-off radii density fit:                        0.1000000000E-97
 Overlap cut-off criterion AO matrix elements:     0.1000000000E-97
 Cut-offs for Coulomb potential and fitted density:0.1000000000E-97
 Cut-off criterion for Coulomb multipole terms:    0.1000000000E-97
 Progressive Convergence parameter:                 0.000000000    
1
 ***************************************************************************************************



                                            ***************************
                                            *  C O M P U T A T I O N  *
                                            ***************************
  

 Number of elements of the density matrix on this node (used, total):       190       190



 ===========================================
 Numerical Integration : Fuzzy Cells (Becke)
 ===========================================
  
 Becke grid quality: VERYGOOD       
  
 Lebedev angular grid order:             min:  13 max:  41
 Nr. of radial points:                   min:  68 max:  68

 Total nr. of points:         68
 Nr. of blocks:                1
 Block length:                68
 Nr. of dummy points:          0


 Test of Precision of the Numerical Integration Grid
 ===================================================

 Integral of the Total Core Density:                   1.99999999865610
 Relative Error:                                      -6.720E-10



 ========================
 Density Fitting (zlmFit)
 ========================
  
 ZlmFit Fit Quality: VERYGOOD       
  
 Max L-expansion:                        min:   0 max:   0
 Nr. of radial interpolation points:     min: 140 max: 140



 =====
 S C F  ***  ScaSCF  ***
 =====
  

 CYCLE    1
 SCF Error: norm([F,P])=      0.000000000000, max([F,P])=      0.000000000000
 orbitals (Q,E):
 ---------------
 S :1...3            ( 2.00    -5.3654)  ( 0.00    -2.2073)  ( 0.00    23.6692)
 P :1...3            ( 4.00    -5.0045)  ( 0.00    -2.0150)  ( 0.00    -0.3846)
 D :1...1            ( 0.00    -2.0410)

 CYCLE    2
 SCF Error: norm([F,P])=      4.562993374873, max([F,P])=      2.528971113813
 orbitals (Q,E):
 ---------------
 S :1...2            ( 2.00    -0.1548)  ( 0.00     1.6948)
 P :1...2            ( 4.00     0.1773)  ( 0.00     0.9552)
 D :1...1            ( 0.00     1.4649)

 CYCLE    3
  SDIIS (wt  0.000):  0.3378  0.6622
 A-DIIS (wt  1.000):  0.4814  0.5186
  DIIS coefficients:  0.4814  0.5186
 SCF Error: norm([F,P])=      2.723155250500, max([F,P])=      1.798667049295
 orbitals (Q,E):
 ---------------
 S :1...2            ( 2.00    -1.1093)  ( 0.00     0.7549)
 P :1...2            ( 4.00    -0.5518)  ( 0.00     0.2590)
 D :1...1            ( 0.00     0.8910)

 CYCLE    4
  SDIIS (wt  0.000):  0.0919  0.9081
 A-DIIS (wt  1.000):  0.0000  1.0000
  DIIS coefficients:  0.0000  1.0000
 SCF Error: norm([F,P])=      0.289027138405, max([F,P])=      0.130648623511
 orbitals (Q,E):
 ---------------
 S :1...2            ( 2.00    -0.7707)  ( 0.00     0.9912)
 P :1...2            ( 4.00    -0.2284)  ( 0.00     0.4046)
 D :1...1            ( 0.00     1.1288)

 CYCLE    5
  SDIIS (wt  0.000):  0.0260  0.6740  0.3001
 A-DIIS (wt  1.000):  0.0000  0.5764  0.4236
  DIIS coefficients:  0.0000  0.5764  0.4236
 SCF Error: norm([F,P])=      0.416615089426, max([F,P])=      0.232643669786
 orbitals (Q,E):
 ---------------
 S :1...2            ( 2.00    -0.8764)  ( 0.00     0.9107)
 P :1...2            ( 4.00    -0.3280)  ( 0.00     0.3557)
 D :1...1            ( 0.00     1.0703)

 CYCLE    6
  SDIIS (wt  0.942):  0.0005  0.0237 -0.0203  0.9960
 A-DIIS (wt  0.058):  0.0000  0.0000  0.0000  1.0000
  DIIS coefficients:  0.0005  0.0224 -0.0191  0.9962
 SCF Error: norm([F,P])=      0.013723272809, max([F,P])=      0.006719036732
 orbitals (Q,E):
 ---------------
 S :1...2            ( 2.00    -0.8830)  ( 0.00     0.9058)
 P :1...2            ( 4.00    -0.3343)  ( 0.00     0.3521)
 D :1...1            ( 0.00     1.0657)

 CYCLE    7
  SDIIS (wt  1.000): -0.0000  0.0016  0.0023  0.0424  0.9537
  DIIS coefficients: -0.0000  0.0016  0.0023  0.0424  0.9537
 SCF Error: norm([F,P])=      0.001103645928, max([F,P])=      0.000634039171
 orbitals (Q,E):
 ---------------
 S :1...2            ( 2.00    -0.8827)  ( 0.00     0.9060)
 P :1...2            ( 4.00    -0.3340)  ( 0.00     0.3523)
 D :1...1            ( 0.00     1.0659)

 CYCLE    8
  SDIIS (wt  1.000): -0.0000 -0.0001  0.0000 -0.0032  0.0268  0.9765
  DIIS coefficients: -0.0000 -0.0001  0.0000 -0.0032  0.0268  0.9765
 SCF Error: norm([F,P])=      0.000035919805, max([F,P])=      0.000020263970
 orbitals (Q,E):
 ---------------
 S :1...2            ( 2.00    -0.8827)  ( 0.00     0.9060)
 P :1...2            ( 4.00    -0.3340)  ( 0.00     0.3522)
 D :1...1            ( 0.00     1.0659)

 CYCLE    9
  SDIIS (wt  1.000): -0.0000  0.0008  0.0188  0.9804
  DIIS coefficients: -0.0000  0.0008  0.0188  0.9804
 SCF Error: norm([F,P])=      0.000000326384, max([F,P])=      0.000000183924
 orbitals (Q,E):
 ---------------
 S :1...2            ( 2.00    -0.8827)  ( 0.00     0.9060)
 P :1...2            ( 4.00    -0.3340)  ( 0.00     0.3522)
 D :1...1            ( 0.00     1.0659)

 CYCLE   10
  SDIIS (wt  1.000):  0.0000  0.0003  0.9996
  DIIS coefficients:  0.0000  0.0003  0.9996
 SCF Error: norm([F,P])=      0.000000000559, max([F,P])=      0.000000000306
 orbitals (Q,E):
 ---------------
 S :1...2            ( 2.00    -0.8827)  ( 0.00     0.9060)
 P :1...2            ( 4.00    -0.3340)  ( 0.00     0.3522)
 D :1...1            ( 0.00     1.0659)

 SCF CONVERGED

 CYCLE   11
1
 ***************************************************************************************************



                                                *******************
                                                *  R E S U L T S  *
                                                *******************
  
 *** Using FIT density in Focky
  SDIIS (wt  1.000): -0.0000  0.0143  0.9857
  DIIS coefficients: -0.0000  0.0143  0.9857
 SCF Error: norm([F,P])=      0.000000000010, max([F,P])=      0.000000000006

 Scaled ZORA Orbital Energies, per Irrep and Spin:
 =================================================
                        Occup              E (au)              E (eV)       Diff (eV) with prev. cycle
                        -----      --------------------        ------       --------------------------
 S
               1        2.000     -0.88272313143209E+00       -24.020              -9.28E-11
               2        0.000      0.90601345014671E+00        24.654
               3        0.000      0.29578810816937E+02       804.880
 P
               1        4.000     -0.33400585272070E+00        -9.089              -8.94E-11
               2        0.000      0.35224911365993E+00         9.585
               3        0.000      0.38342927625315E+01       104.336
 D
               1        0.000      0.10658965783141E+01        29.005


 Partially Occupied:
               1 P                -0.33400585272070E+00
  
 HOMO :        1 S                -0.88272313143209E+00
 LUMO :        2 P                 0.35224911365993E+00
  


 Orbital Energies, all Irreps
 ========================================

 Irrep        no.  (spin)   Occup              E (au)                E (eV)
 ---------------------------------------------------------------------------
 S             1             2.00       -0.88272313143209E+00       -24.0201
 P             1             4.00       -0.33400585272070E+00        -9.0888
 P             2             0.00        0.35224911365993E+00         9.5852
 S             2             0.00        0.90601345014671E+00        24.6539
 D             1             0.00        0.10658965783141E+01        29.0045
 P             3             0.00        0.38342927625315E+01       104.3364
 S             3             0.00        0.29578810816937E+02       804.8804


 Scaled ZORA Orbital Energies of the Core Orbitals:
 ==================================================

 (Note that the atoms are grouped by atomtype, see the labels, and may hence NOT be in input order)

 AtomType  Orbital  Atom                   E (au)                        E (eV)
 --------  -------  ----           --------------------        ----------------
 O           1S        1          -0.18925919758629E+02                -515.000



 =======================================
 M U L L I K E N   P O P U L A T I O N S
 =======================================
  
 The survey below gives for each atom:
 a) the total charge (Z minus electrons)
 b) the net spin polarization (nr of electrons spin-A minus spin-B)
 c) for each spin the atomic electron valence density (integrated) per L-value.

 Atom              Charge    Spin density          S         P         D         F
 ----              ------    ------------       ------    ------    ------    ------
 1 O              -0.0000                       2.0000    4.0000    0.0000    0.0000

 Populations of individual BAS functions
 ----------------------------------------
 1 O            0.0005  0.9226  1.0966 -0.0196  0.3346  0.3346  0.3346  0.7512  0.7512  0.7512
                0.2476  0.2476  0.2476  0.0000  0.0000  0.0000  0.0000  0.0000  0.0000

 Gross Charges per Atom (Z minus electrons)
 ==========================================
            -0.0000
 Net Total: -0.00000000



 =======================================================================
 Electrostatic potential at the Nuclei due to electrons and other nuclei
 =======================================================================
  
         Atom                  Potential
         ----                  ---------
     1)   O                  22.20265662
 
 
 ========================
 No memory problems found
 ========================
 
 Maximum number of active allocate calls:         389
 
 *******************************************************************************

                             A D F   E X I T
 NORMAL TERMINATION



 =================
 Timing Statistics
 =================
  
 Total Used :                     CPU=        0.45      System=        0.02     Elapsed=        0.50

 Calls  Section                     ( Mean, Percentage )
 ---------------------------------------------------------------------------------------------------
     3  ><      ................      0.00    0.00             0.00   20.00             0.00    0.93
     1  INIT    ................      0.08   16.96             0.00    0.00             0.08   16.04
     1  GEOMET  ................      0.01    2.68             0.00   20.00             0.02    4.83
     1  INPUTA  ................      0.00    0.89             0.00    0.00             0.00    0.71
     1  MAINSY  ................      0.01    1.79             0.00   20.00             0.01    2.93
     1  SYMFIT  ................      0.00    0.00             0.00    0.00             0.00    0.35
     1  CORORT  ................      0.00    0.00             0.00   20.00             0.00    0.33
     1  SYMORB  ................      0.00    0.00             0.00    0.00             0.00    0.19
     1  CLSMAT  ................      0.00    0.89             0.00    0.00             0.01    1.20
     1  ORTHON  ................      0.01    1.79             0.00    0.00             0.01    1.09
     1  GENPT   ................      0.02    3.57             0.00    0.00             0.02    3.10
     1  PTBAS   ................      0.00    0.00             0.00    0.00             0.01    1.15
    11  FOCKY   ................      0.02   55.36             0.00   20.00             0.02   51.34
    11  FOCKTR  ................      0.00    0.89             0.00    0.00             0.00    1.55
    11  SDIIS   ................      0.00    7.14             0.00    0.00             0.00    6.39
     1  COREPS  ................      0.02    3.57             0.00    0.00             0.02    3.64
     1  POPAN   ................      0.00    0.89             0.00    0.00             0.01    1.11
     1  DEBYE   ................      0.00    0.89             0.00    0.00             0.00    0.39
     1  EXIT PROCEDURE .........      0.01    2.68             0.00    0.00             0.01    2.75


 Currently Open Files (EXIT00)
 ====================

 Unit    Access Format  Status   Type       Ident (file)
 -------------------------------------------------------
   3      SEQ    FORM   TRANSP  NORMAL      LOGFILE
                                          ( logfile )

 ***************************************************************************************************
 (LOGFILE)
 <Sep08-2020> <04:16:40>  DIRAC 2019  RunTime: Sep08-2020 04:16:40  Nodes: 1  Procs: 1
 <Sep08-2020> <04:16:40>  NORMAL TERMINATION
 <Sep08-2020> <04:16:40>  END
 <Sep08-2020> <04:16:40>  ADF 2019  RunTime: Sep08-2020 04:16:40  Nodes: 1  Procs: 1
 <Sep08-2020> <04:16:40>  Hydrogen (TZP)
 <Sep08-2020> <04:16:40>  RunType   : CREATE
 <Sep08-2020> <04:16:40>  Net Charge: 0 (Nuclei minus Electrons)
 <Sep08-2020> <04:16:40>  Symmetry  : ATOM
  Coordinates
    Atom         X           Y           Z   (Angstrom)
    1.H         0.000000    0.000000    0.000000
 <Sep08-2020> <04:16:40>  >>>> CORORT
 <Sep08-2020> <04:16:40>  >>>> CLSMAT
 <Sep08-2020> <04:16:40>  >>>> ORTHON
 <Sep08-2020> <04:16:40>  >>>> GENPT
 <Sep08-2020> <04:16:40>  Block Length=  64
 <Sep08-2020> <04:16:40>  >>>> PTBAS
 <Sep08-2020> <04:16:40>  >>>> CYCLE
 <Sep08-2020> <04:16:40>              |Error|         MaxErr       Wt(A-DIIS)
 <Sep08-2020> <04:16:40>      1      0.00000000      0.00000000
 <Sep08-2020> <04:16:40>      2      0.03153787      0.03011049
 <Sep08-2020> <04:16:41>      3      0.00861799      0.00834303    100.0
 <Sep08-2020> <04:16:41>      4      0.00173235      0.00171862      0.7
 <Sep08-2020> <04:16:41>      5      0.00004367      0.00003977      0.0
 <Sep08-2020> <04:16:41>      6      0.00000238      0.00000216      0.0
 <Sep08-2020> <04:16:41>      7      0.00000001      0.00000001      0.0
 <Sep08-2020> <04:16:41>  SCF converged
 <Sep08-2020> <04:16:41>      8      0.00000000      0.00000000      0.0
 <Sep08-2020> <04:16:41>  >>>> POPAN
 <Sep08-2020> <04:16:41>  >>>> DEBYE
 <Sep08-2020> <04:16:41>  NORMAL TERMINATION
 <Sep08-2020> <04:16:41>  END
 <Sep08-2020> <04:16:41>  DIRAC 2019  RunTime: Sep08-2020 04:16:41  Nodes: 1  Procs: 1
 <Sep08-2020> <04:16:41>  NORMAL TERMINATION
 <Sep08-2020> <04:16:41>  END
 <Sep08-2020> <04:16:41>  ADF 2019  RunTime: Sep08-2020 04:16:41  Nodes: 1  Procs: 1
 <Sep08-2020> <04:16:41>  Oxygen (TZP, 1s frozen)
 <Sep08-2020> <04:16:41>  RunType   : CREATE
 <Sep08-2020> <04:16:41>  Net Charge: 0 (Nuclei minus Electrons)
 <Sep08-2020> <04:16:41>  Symmetry  : ATOM
  Coordinates
    Atom         X           Y           Z   (Angstrom)
    1.O         0.000000    0.000000    0.000000
 <Sep08-2020> <04:16:41>  >>>> CORORT
 <Sep08-2020> <04:16:41>  >>>> CLSMAT
 <Sep08-2020> <04:16:41>  >>>> ORTHON
 <Sep08-2020> <04:16:41>  >>>> GENPT
 <Sep08-2020> <04:16:41>  Block Length=  68
 <Sep08-2020> <04:16:41>  >>>> PTBAS
 <Sep08-2020> <04:16:41>  >>>> CYCLE
 <Sep08-2020> <04:16:41>              |Error|         MaxErr       Wt(A-DIIS)
 <Sep08-2020> <04:16:41>      1      0.00000000      0.00000000
 <Sep08-2020> <04:16:41>      2      4.56299337      2.52897111
 <Sep08-2020> <04:16:41>      3      2.72315525      1.79866705    100.0
 <Sep08-2020> <04:16:41>      4      0.28902714      0.13064862    100.0
 <Sep08-2020> <04:16:41>      5      0.41661509      0.23264367    100.0
 <Sep08-2020> <04:16:41>      6      0.01372327      0.00671904      5.8
 <Sep08-2020> <04:16:41>      7      0.00110365      0.00063404      0.0
 <Sep08-2020> <04:16:41>      8      0.00003592      0.00002026      0.0
 <Sep08-2020> <04:16:41>      9      0.00000033      0.00000018      0.0
 <Sep08-2020> <04:16:41>     10      0.00000000      0.00000000      0.0
 <Sep08-2020> <04:16:41>  SCF converged
 <Sep08-2020> <04:16:41>     11      0.00000000      0.00000000      0.0
 <Sep08-2020> <04:16:41>  >>>> POPAN
 <Sep08-2020> <04:16:41>  >>>> DEBYE
 <Sep08-2020> <04:16:41>  NORMAL TERMINATION
 <Sep08-2020> <04:16:41>  END

 *******************************************************************************
 *                                                                             *
 *  -------------------------------------                                      *
 *   Amsterdam Density Functional  (ADF)         2019                          *
 *  -------------------------------------                                      *
 *                                               r79301 2019-11-09             *
 *                                                                             *
 *                                                                             *
 *                            =====================                            *
 *                            |                   |                            *
 *                            |     D I R A C     |                            *
 *                            |                   |                            *
 *                            =====================                            *
 *                                                                             *
 *                                                                             *
 *   Online information and documentation:  https://www.scm.com/support/       *
 *   E-mail:  support@scm.com   info@scm.com                                   *
 *                                                                             *
 *   Scientific publications using ADF results must be properly referenced     *
 *   See the User Manuals (or the web site) for recommended citations          *
 *   The terms and conditions of the End User License Agreement apply to       *
 *   the use of ADF, https://www.scm.com/license-terms/                        *
 *                                                                             *
 **********************  x86_64_linux_intel / intelmpi  ************************
 
 
 
  
 DIRAC 2019  RunTime: Sep08-2020 04:16:41  Nodes: 1  Procs: 1

 Temporary files are created in /scratch/kid_0.898770953 (0x58465342)

1
 TUNGSTEN ATOM 4d CORE RELATIVISTIC, Point Nuc, A and c from 
 N J RN H ZN XION ANUC CLIGHT
 5000   22100.00000000197.36710137 74.00000000  0.00000000  183.950932  0.1370360E+03
  PH   PHI     EPS        DEL        DELRVR
  0.30  0.30     2500.00  0.00001000  0.00001000
 IDIRC  NC1  NDEBU NPRIN  IPUN IRCOR IWCOR
   1   300     0     0     0     0    14
   XALPHA      XLATTER      RNUC
  0.70000000  0.00000000  0.00000000 Point Charge
   XN   XL   XJ      XE          XZ      XDELL
  1.0  0.0  0.5   -2600.000       2.000     0.00000
  2.0  0.0  0.5    -425.000       2.000     0.00000
  2.0  1.0  0.5    -425.000       2.000     0.00000
  2.0  1.0  1.5    -425.000       4.000     0.00000
  3.0  0.0  0.5    -100.000       2.000     0.00000
  3.0  1.0  0.5    -100.000       2.000     0.00000
  3.0  1.0  1.5    -100.000       4.000     0.00000
  3.0  2.0  1.5     -80.000       4.000     0.00000
  3.0  2.0  2.5     -80.000       6.000     0.00000
  4.0  0.0  0.5     -22.000       2.000     0.00000
  4.0  1.0  0.5     -20.000       2.000     0.00000
  4.0  1.0  1.5     -20.000       4.000     0.00000
  4.0  2.0  1.5     -11.000       4.000     0.00000
  4.0  2.0  2.5     -11.000       6.000     0.00000
  4.0  3.0  2.5      -1.000       6.000     0.00000
  4.0  3.0  3.5      -1.000       8.000     0.00000
  5.0  0.0  0.5      -3.000       2.000     0.00000
  5.0  1.0  0.5      -2.200       2.000     0.00000
  5.0  1.0  1.5      -2.200       4.000     0.00000
  5.0  2.0  1.5      -0.500       4.000     0.00000
  5.0  2.0  2.5      -0.500       0.000     0.00000
  6.0  0.0  0.5      -0.200       2.000     0.00000
 ICORP=  0  NPCL=  0  DEMP=0.00  PEPS=0.000000
 R(1)=  0.1000000E-08 D=  0.1005080E+01 RNUC=  0.0000000E+00
 converged at cycle   63  DENSITY AVERAGING    0.1536
  MAXIMUM ERROR IN R.V(R) IS   0.78838062E-05
 Q,EY,EV,EZ,ESUM,ETOT,RHO  0.740000E+02 -0.431420E+03 -0.281568E+05 -0.403919E+05 -0.993885E+04 -0.161643E+05  0.726391E-09


 DIRAC CALCULATION
1                    TUNGSTEN ATOM 4d CORE RELATIVISTIC, Point Nuc, A and c from libtc


 EXCHANGE COEFFICIENT=  0.7000000           TAIL CORRECTION=  0.           NUCLEAR RADIUS=  0.000E+00
0                       ORBITAL    N    L    J     ELECTRONS     EIGENVALUE                DELTA OF EIGENV.

                          1S1/2  1.0  0.0  0.5     2.000       -0.2549514E+04                 0.5980248E-04
                          2S1/2  2.0  0.0  0.5     2.000       -0.4399118E+03                 0.5052420E-04
                          2P1/2  2.0  1.0  0.5     2.000       -0.4208427E+03                 0.5265062E-04
                          2P3/2  2.0  1.0  1.5     4.000       -0.3711192E+03                 0.5139441E-04
                          3S1/2  3.0  0.0  0.5     2.000       -0.1012881E+03                 0.3437035E-04
                          3P1/2  3.0  1.0  0.5     2.000       -0.9277148E+02                 0.3553128E-04
                          3P3/2  3.0  1.0  1.5     4.000       -0.8201733E+02                 0.3404634E-04
                          3D3/2  3.0  2.0  1.5     4.000       -0.6762803E+02                 0.3680712E-04
                          3D5/2  3.0  2.0  2.5     6.000       -0.6528623E+02                 0.3629511E-04
                          4S1/2  4.0  0.0  0.5     2.000       -0.2084139E+02                 0.1939427E-04
                          4P1/2  4.0  1.0  0.5     2.000       -0.1730737E+02                 0.1933978E-04
                          4P3/2  4.0  1.0  1.5     4.000       -0.1480597E+02                 0.1810922E-04
                          4D3/2  4.0  2.0  1.5     4.000       -0.8989319E+01                 0.1779394E-04
                          4D5/2  4.0  2.0  2.5     6.000       -0.8528007E+01                 0.1741170E-04
                          4F5/2  4.0  3.0  2.5     6.000       -0.1237480E+01                 0.1544089E-04
                          4F7/2  4.0  3.0  3.5     8.000       -0.1154634E+01                 0.1522033E-04
                          5S1/2  5.0  0.0  0.5     2.000       -0.2863514E+01                 0.7979521E-05
                          5P1/2  5.0  1.0  0.5     2.000       -0.1813289E+01                 0.7246225E-05
                          5P3/2  5.0  1.0  1.5     4.000       -0.1448762E+01                 0.6602120E-05
                          5D3/2  5.0  2.0  1.5     4.000       -0.1486933E+00                 0.3973088E-05
                          5D5/2  5.0  2.0  2.5     0.000       -0.1223153E+00                 0.3735081E-05
                          6S1/2  6.0  0.0  0.5     2.000       -0.1847434E+00                 0.1808440E-05


                                        NUCLEAR CHARGE=   74.000000
                            INTEGRAL OF CHARGE DENSITY=   74.000000
                           SUM OF THE ORBITAL ENERGIES=  -9938.8529
                                          TOTAL ENERGY= -16164.2530
                                        KINETIC ENERGY=  18217.9700
                             NUCLEAR ATTRACTION ENERGY= -40391.9132
                             ELECTRON REPULSION ENERGY=   6333.2551
                                       EXCHANGE ENERGY=   -323.5649

 *******************************************************************************

                             D I R A C   E X I T
 NORMAL TERMINATION



 =================
 Timing Statistics
 =================
  
 Total Used :                     CPU=        0.68      System=        0.01     Elapsed=        0.70

 Calls  Section                     ( Mean, Percentage )
 ---------------------------------------------------------------------------------------------------
     2  ><      ................      0.00    0.00             0.00    0.00             0.00    0.00
     1  EXIT PROCEDURE .........      0.68  100.00             0.01  100.00             0.70  100.00


 Currently Open Files (EXIT00)
 ====================

 Unit    Access Format  Status   Type       Ident (file)
 -------------------------------------------------------
   3      SEQ    FORM   TRANSP  NORMAL      LOGFILE
                                          ( logfile )
 
Create W   file=TZP-W.4d
XC
  GGA PBE
End
relativistic ZORA
Corepotentials t12.rel
End

 *******************************************************************************
 *                                                                             *
 *  -------------------------------------                                      *
 *   Amsterdam Density Functional  (ADF)         2019                          *
 *  -------------------------------------                                      *
 *                                               r79301 2019-11-09             *
 *                                                                             *
 *                                                                             *
 *                              =================                              *
 *                              |               |                              *
 *                              |     A D F     |                              *
 *                              |               |                              *
 *                              =================                              *
 *                                                                             *
 *                                                                             *
 *   Online information and documentation:  https://www.scm.com/support/       *
 *   E-mail:  support@scm.com   info@scm.com                                   *
 *                                                                             *
 *   Scientific publications using ADF results must be properly referenced     *
 *   See the User Manuals (or the web site) for recommended citations          *
 *   The terms and conditions of the End User License Agreement apply to       *
 *   the use of ADF, https://www.scm.com/license-terms/                        *
 *                                                                             *
 **********************  x86_64_linux_intel / intelmpi  ************************
 
 
 
  
 ADF 2019  RunTime: Sep08-2020 04:16:42  Nodes: 1  Procs: 1

 Temporary files are created in /scratch/kid_0.277071220 (0x58465342)

 Tungsten (TZP, 4d frozen)



 ===========================
 A T T A C H E D   F I L E S
 ===========================
  
 CREATE - Data File:    TZP-W.4d
                        Tungsten (TZP, 4d frozen)
 Core Potentials:
         file : t12.rel



 ===============================
 M O D E L   P A R A M E T E R S
 ===============================
  
 DENSITY FUNCTIONAL POTENTIAL (scf)
    LDA:                               PW92                                    == Not Default ==
    Gradient Corrections:              PBEc PBEx                               == Not Default ==

 SPIN  (restricted / unrestr.)
    Molecule:                          Restricted                               

 OTHER ASPECTS
    Relativistic Corrections:          scalar (ZORA,MAPA)                      == Not Default ==

    Nuclear Charge Density Model:      Point Charge Nuclei                      
    Core Treatment:                    Frozen Orbital(s)                        

    Hyperfine or Zeeman Interaction:   ---                                      



 =====================================
 S Y M M E T R Y ,   E L E C T R O N S
 =====================================
  
 Symmetry: ATOM

 Irreducible Representations, including subspecies
 -------------------------------------------------
 S
 P:x  P:y  P:z
 D:z2  D:x2-y2  D:xy  D:xz  D:yz
 F:z3  F:z  F:xyz  F:z2x  F:z2y  F:x  F:y


 Configuration of Valence Electrons
 ==================================

          Occupation Numbers
          -------------------------------------------------
 S        2*2
 P        6
 D        4
 F        14
          -------------------------------------------------

 Total:   28

 Net Charge: 0 (Nuclei minus Electrons)

 Preset values for MO occupations will be applied through SCF cycle no. 1000000
 Thereafter, the program will assign electrons to MOs that are spatially
 similar to the occupied MOs in a "reference" cycle ("KeepOrbitals").
 The reference cycle is always the PREVIOUS cycle: it will evolve with
 the SCF procedure.



 ================================
 (Slater-type)  F U N C T I O N S  ***  (Basis and Fit)  ***
 ================================
  

 Atom Type    1  (W)
 ==============

 Valence Basis Sets:  25
 -----------------------
   1 S   52.000000
   2 S   33.250000
   3 S   19.100000
   4 S   11.650000
   2 P   36.850000
   3 P   16.500000
   4 P   11.550000
   3 D   20.100000
   4 D   10.300000
   1 S  163.900000
   5 S    6.050000
   5 S    3.950000
   6 S    2.850000
   6 S    1.800000
   6 S    1.140000
   5 P    5.900000
   5 P    4.000000
   5 P    2.700000
   5 D    4.150000
   5 D    2.250000
   5 D    1.200000
   4 F   13.550000
   4 F    7.050000
   4 F    3.550000
   6 P    1.800000

 Frozen Core Shells
 ------------------
    S:  4
    P:  3
    D:  2


 BAS: List of all Elementary Cartesian Basis Functions
 =====================================================

 The numbering in the list below (to the right of the function characteristics) is referred
 to in print-outs of MO eigenvectors and Mulliken populations in the BAS representation
 (as contrasted to the SFO representation).

 Notes:
 1. The functions are characterized by a polynomial prefactor (powers of x,y,z and r) and
    an exponential decay factor alpha.
 2. Since the basis sets are specific for an atom TYPE, the individual functions occur on
    all atoms of that type.
 3. The word 'Core' in the left margin signals that it is a Core Function (CF) : not a
    degree of freedom in the valence set, but only used to ensure orthogonalization of
    the other valence basis functions on the frozen Core Orbitals.


 (power of) X  Y  Z  R     Alpha  on Atom
            ==========     =====     ==========

 W                                    1
                                  ---------------------------------------------------------------------------
    Core    0  0  0  0    52.000      1
    Core    0  0  0  1    33.250      2
    Core    0  0  0  2    19.100      3
    Core    0  0  0  3    11.650      4
    Core    1  0  0  0    36.850      5
    Core    0  1  0  0    36.850      6
    Core    0  0  1  0    36.850      7
    Core    1  0  0  1    16.500      8
    Core    0  1  0  1    16.500      9
    Core    0  0  1  1    16.500     10
    Core    1  0  0  2    11.550     11
    Core    0  1  0  2    11.550     12
    Core    0  0  1  2    11.550     13
    Core    2  0  0  0    20.100     14
    Core    1  1  0  0    20.100     15
    Core    1  0  1  0    20.100     16
    Core    0  2  0  0    20.100     17
    Core    0  1  1  0    20.100     18
    Core    0  0  2  0    20.100     19
    Core    2  0  0  1    10.300     20
    Core    1  1  0  1    10.300     21
    Core    1  0  1  1    10.300     22
    Core    0  2  0  1    10.300     23
    Core    0  1  1  1    10.300     24
    Core    0  0  2  1    10.300     25
            0  0  0  0   163.900     26
            0  0  0  4     6.050     27
            0  0  0  4     3.950     28
            0  0  0  5     2.850     29
            0  0  0  5     1.800     30
            0  0  0  5     1.140     31
            1  0  0  3     5.900     32
            0  1  0  3     5.900     33
            0  0  1  3     5.900     34
            1  0  0  3     4.000     35
            0  1  0  3     4.000     36
            0  0  1  3     4.000     37
            1  0  0  3     2.700     38
            0  1  0  3     2.700     39
            0  0  1  3     2.700     40
            2  0  0  2     4.150     41
            1  1  0  2     4.150     42
            1  0  1  2     4.150     43
            0  2  0  2     4.150     44
            0  1  1  2     4.150     45
            0  0  2  2     4.150     46
            2  0  0  2     2.250     47
            1  1  0  2     2.250     48
            1  0  1  2     2.250     49
            0  2  0  2     2.250     50
            0  1  1  2     2.250     51
            0  0  2  2     2.250     52
            2  0  0  2     1.200     53
            1  1  0  2     1.200     54
            1  0  1  2     1.200     55
            0  2  0  2     1.200     56
            0  1  1  2     1.200     57
            0  0  2  2     1.200     58
            3  0  0  0    13.550     59
            2  1  0  0    13.550     60
            2  0  1  0    13.550     61
            1  2  0  0    13.550     62
            1  1  1  0    13.550     63
            1  0  2  0    13.550     64
            0  3  0  0    13.550     65
            0  2  1  0    13.550     66
            0  1  2  0    13.550     67
            0  0  3  0    13.550     68
            3  0  0  0     7.050     69
            2  1  0  0     7.050     70
            2  0  1  0     7.050     71
            1  2  0  0     7.050     72
            1  1  1  0     7.050     73
            1  0  2  0     7.050     74
            0  3  0  0     7.050     75
            0  2  1  0     7.050     76
            0  1  2  0     7.050     77
            0  0  3  0     7.050     78
            3  0  0  0     3.550     79
            2  1  0  0     3.550     80
            2  0  1  0     3.550     81
            1  2  0  0     3.550     82
            1  1  1  0     3.550     83
            1  0  2  0     3.550     84
            0  3  0  0     3.550     85
            0  2  1  0     3.550     86
            0  1  2  0     3.550     87
            0  0  3  0     3.550     88
            1  0  0  4     1.800     89
            0  1  0  4     1.800     90
            0  0  1  4     1.800     91

 Total number of charge fitting functions (nprimf)       329
 Total number of Cartesian basis functions (naos)         91
 Total number of Cartesian core functions  (ncos)         25



 BAS: List of all Elementary Cartesian Basis Functions
 =====================================================

 The numbering in the list below (to the right of the function characteristics) is referred
 to in print-outs of MO eigenvectors and Mulliken populations in the BAS representation
 (as contrasted to the SFO representation).

 Notes:
 1. The functions are characterized by a polynomial prefactor (powers of x,y,z and r) and
    an exponential decay factor alpha.
 2. Since the basis sets are specific for an atom TYPE, the individual functions occur on
    all atoms of that type.
 3. The word 'Core' in the left margin signals that it is a Core Function (CF) : not a
    degree of freedom in the valence set, but only used to ensure orthogonalization of
    the other valence basis functions on the frozen Core Orbitals.


 (power of) X  Y  Z  R     Alpha  on Atom
            ==========     =====     ==========

 W                                    1
                                  ---------------------------------------------------------------------------
    Core    0  0  0  0    52.000      1
    Core    0  0  0  1    33.250      2
    Core    0  0  0  2    19.100      3
    Core    0  0  0  3    11.650      4
    Core    1  0  0  0    36.850      5
    Core    0  1  0  0    36.850      6
    Core    0  0  1  0    36.850      7
    Core    1  0  0  1    16.500      8
    Core    0  1  0  1    16.500      9
    Core    0  0  1  1    16.500     10
    Core    1  0  0  2    11.550     11
    Core    0  1  0  2    11.550     12
    Core    0  0  1  2    11.550     13
    Core    2  0  0  0    20.100     14
    Core    1  1  0  0    20.100     15
    Core    1  0  1  0    20.100     16
    Core    0  2  0  0    20.100     17
    Core    0  1  1  0    20.100     18
    Core    0  0  2  0    20.100     19
    Core    2  0  0  1    10.300     20
    Core    1  1  0  1    10.300     21
    Core    1  0  1  1    10.300     22
    Core    0  2  0  1    10.300     23
    Core    0  1  1  1    10.300     24
    Core    0  0  2  1    10.300     25
            0  0  0  0   163.900     26
            0  0  0  4     6.050     27
            0  0  0  4     3.950     28
            0  0  0  5     2.850     29
            0  0  0  5     1.800     30
            0  0  0  5     1.140     31
            1  0  0  3     5.900     32
            0  1  0  3     5.900     33
            0  0  1  3     5.900     34
            1  0  0  3     4.000     35
            0  1  0  3     4.000     36
            0  0  1  3     4.000     37
            1  0  0  3     2.700     38
            0  1  0  3     2.700     39
            0  0  1  3     2.700     40
            2  0  0  2     4.150     41
            1  1  0  2     4.150     42
            1  0  1  2     4.150     43
            0  2  0  2     4.150     44
            0  1  1  2     4.150     45
            0  0  2  2     4.150     46
            2  0  0  2     2.250     47
            1  1  0  2     2.250     48
            1  0  1  2     2.250     49
            0  2  0  2     2.250     50
            0  1  1  2     2.250     51
            0  0  2  2     2.250     52
            2  0  0  2     1.200     53
            1  1  0  2     1.200     54
            1  0  1  2     1.200     55
            0  2  0  2     1.200     56
            0  1  1  2     1.200     57
            0  0  2  2     1.200     58
            3  0  0  0    13.550     59
            2  1  0  0    13.550     60
            2  0  1  0    13.550     61
            1  2  0  0    13.550     62
            1  1  1  0    13.550     63
            1  0  2  0    13.550     64
            0  3  0  0    13.550     65
            0  2  1  0    13.550     66
            0  1  2  0    13.550     67
            0  0  3  0    13.550     68
            3  0  0  0     7.050     69
            2  1  0  0     7.050     70
            2  0  1  0     7.050     71
            1  2  0  0     7.050     72
            1  1  1  0     7.050     73
            1  0  2  0     7.050     74
            0  3  0  0     7.050     75
            0  2  1  0     7.050     76
            0  1  2  0     7.050     77
            0  0  3  0     7.050     78
            3  0  0  0     3.550     79
            2  1  0  0     3.550     80
            2  0  1  0     3.550     81
            1  2  0  0     3.550     82
            1  1  1  0     3.550     83
[...]
 <Sep08-2020> <05:57:09>  >>>> CORORT
 <Sep08-2020> <05:57:09>  >>>> CLSMAT
 <Sep08-2020> <05:57:09>  >>>> ORTHON
 <Sep08-2020> <05:57:09>  >>>> GENPT
 <Sep08-2020> <05:57:10>  Block Length= 128
 <Sep08-2020> <05:57:10>  >>>> PTBAS
 <Sep08-2020> <05:57:14>  combining surface points...
 <Sep08-2020> <05:57:14>  combining surface points...
 <Sep08-2020> <05:57:14>  combining surface points...
 <Sep08-2020> <05:57:14>  >>>> CYCLE
 <Sep08-2020> <05:57:21>              |Error|         MaxErr       Wt(A-DIIS)
 <Sep08-2020> <05:57:21>      1      0.34578393      0.12624938
 <Sep08-2020> <05:57:25>      2      0.47137468      0.08365114    100.0
 <Sep08-2020> <05:57:30>      3      0.12819331      0.01356098    100.0
 <Sep08-2020> <05:57:34>      4      0.17766871      0.02937568    100.0
 <Sep08-2020> <05:57:38>      5      0.54142147      0.07958860    100.0
 <Sep08-2020> <05:57:42>      6      0.18323463      0.02729214    100.0
 <Sep08-2020> <05:57:46>      7      0.11246194      0.01176745     10.9
 <Sep08-2020> <05:57:50>      8      0.03178897      0.00465467      3.7
 <Sep08-2020> <05:57:54>      9      0.01410711      0.00251029      1.5
 <Sep08-2020> <05:57:58>     10      0.00432065      0.00051594      0.0
 <Sep08-2020> <05:58:02>     11      0.00216995      0.00034391      0.0
 <Sep08-2020> <05:58:06>     12      0.00075563      0.00017469      0.0
 <Sep08-2020> <05:58:10>     13      0.00045883      0.00007781      0.0
 <Sep08-2020> <05:58:13>     14      0.00015283      0.00002365      0.0
 <Sep08-2020> <05:58:17>     15      0.00008049      0.00001280      0.0
 <Sep08-2020> <05:58:21>     16      0.00003745      0.00000806      0.0
 <Sep08-2020> <05:58:25>     17      0.00003331      0.00000705      0.0
 <Sep08-2020> <05:58:29>     18      0.00000564      0.00000091      0.0
 <Sep08-2020> <05:58:30>  SCF converged
 <Sep08-2020> <05:58:32>     19      0.00000220      0.00000025      0.0
 <Sep08-2020> <05:58:34>  >>>> TOTEN
 <Sep08-2020> <05:58:40>  >>>> POPAN
 <Sep08-2020> <05:58:40>  >>>> DEBYE
 <Sep08-2020> <05:58:40>  >>>> ENGRAD
 <Sep08-2020> <05:58:54>  current energy                               -6.78697503 Hartree
 <Sep08-2020> <05:58:54>  energy change                      -0.00001200     0.00100000    T
 <Sep08-2020> <05:58:54>  constrained gradient max            0.00173810     0.00100000    F
 <Sep08-2020> <05:58:54>  constrained gradient rms            0.00041238     0.00066667    T
 <Sep08-2020> <05:58:54>  gradient max                        0.00173810
 <Sep08-2020> <05:58:54>  gradient rms                        0.00041238
 <Sep08-2020> <05:58:54>  cart. step max                      0.00275725     0.01000000    T
 <Sep08-2020> <05:58:54>  cart. step rms                      0.00094551     0.00666667    T
  Coordinates in Geometry Cycle 56
    Atom         X           Y           Z   (Angstrom)
    1.W         2.473478    0.104294   -0.162769
    2.W        -2.513393    0.104492    0.077033
    3.W        -0.044840   -2.041649   -0.602591
    4.W        -0.090314    1.821806   -1.490491
    5.W         0.083243    0.177065    2.111805
    6.O        -0.020201    0.349717   -0.055952
    7.O         4.184657    0.096830   -0.243632
    8.O        -4.224791    0.097395    0.160709
    9.O         1.918129   -1.557473   -0.716534
   10.O        -2.025820    1.528065   -1.019420
   11.O         2.012360    0.133713    1.635089
   12.O        -1.880865    0.139716    1.822744
   13.O        -0.135326   -1.527371   -2.435705
   14.O        -0.166230    1.277691   -3.142632
   15.O        -0.052500   -3.750011   -0.739711
   16.O        -0.086734    3.549500   -1.424624
   17.O         0.041052   -1.755850    1.242613
   18.O         0.098213    1.879858    2.348898
   19.O         0.163846   -0.551457    3.815997
   20.O        -2.013696   -1.556255   -0.527434
   21.O         1.882361    1.531187   -1.203387
   22.H         0.200588   -0.003001    4.631209
   23.H        -0.154685   -0.631621   -2.859513
 <Sep08-2020> <05:58:54>  >>>> CORORT
 <Sep08-2020> <05:58:54>  >>>> CLSMAT
 <Sep08-2020> <05:58:54>  >>>> ORTHON
 <Sep08-2020> <05:58:54>  >>>> GENPT
 <Sep08-2020> <05:58:54>  Block Length= 128
 <Sep08-2020> <05:58:55>  >>>> PTBAS
 <Sep08-2020> <05:58:59>  combining surface points...
 <Sep08-2020> <05:58:59>  combining surface points...
 <Sep08-2020> <05:58:59>  combining surface points...
 <Sep08-2020> <05:58:59>  >>>> CYCLE
 <Sep08-2020> <05:59:06>              |Error|         MaxErr       Wt(A-DIIS)
 <Sep08-2020> <05:59:06>      1      0.17898827      0.04590595
 <Sep08-2020> <05:59:11>      2      0.47154148      0.08331070    100.0
 <Sep08-2020> <05:59:15>      3      0.12940169      0.01349925    100.0
 <Sep08-2020> <05:59:19>      4      0.16273504      0.02710575    100.0
 <Sep08-2020> <05:59:23>      5      0.60284972      0.08754092    100.0
 <Sep08-2020> <05:59:27>      6      0.19629988      0.03046526    100.0
 <Sep08-2020> <05:59:31>      7      0.08119945      0.01253250     11.6
 <Sep08-2020> <05:59:35>      8      0.02914158      0.00442161      3.5
 <Sep08-2020> <05:59:39>      9      0.01260080      0.00250478      1.5
 <Sep08-2020> <05:59:43>     10      0.00446781      0.00055970      0.0
 <Sep08-2020> <05:59:47>     11      0.00181126      0.00024514      0.0
 <Sep08-2020> <05:59:51>     12      0.00073512      0.00014994      0.0
 <Sep08-2020> <05:59:54>     13      0.00036507      0.00006165      0.0
 <Sep08-2020> <05:59:58>     14      0.00014376      0.00001809      0.0
 <Sep08-2020> <06:00:02>     15      0.00007349      0.00001090      0.0
 <Sep08-2020> <06:00:06>     16      0.00003980      0.00000898      0.0
 <Sep08-2020> <06:00:10>     17      0.00002274      0.00000481      0.0
 <Sep08-2020> <06:00:13>     18      0.00000753      0.00000118      0.0
 <Sep08-2020> <06:00:17>     19      0.00000689      0.00000071      0.0
 <Sep08-2020> <06:00:18>  SCF converged
 <Sep08-2020> <06:00:21>     20      0.00000313      0.00000054      0.0
 <Sep08-2020> <06:00:22>  >>>> TOTEN
 <Sep08-2020> <06:00:28>  >>>> POPAN
 <Sep08-2020> <06:00:28>  >>>> DEBYE
 <Sep08-2020> <06:00:28>  >>>> ENGRAD
 <Sep08-2020> <06:00:42>  current energy                               -6.78697329 Hartree
 <Sep08-2020> <06:00:42>  energy change                       0.00000175     0.00100000    T
 <Sep08-2020> <06:00:42>  constrained gradient max            0.00129796     0.00100000    F
 <Sep08-2020> <06:00:42>  constrained gradient rms            0.00033392     0.00066667    T
 <Sep08-2020> <06:00:42>  gradient max                        0.00129796
 <Sep08-2020> <06:00:42>  gradient rms                        0.00033392
 <Sep08-2020> <06:00:42>  cart. step max                      0.00283859     0.01000000    T
 <Sep08-2020> <06:00:42>  cart. step rms                      0.00093133     0.00666667    T
  Coordinates in Geometry Cycle 57
    Atom         X           Y           Z   (Angstrom)
    1.W         2.474213    0.104530   -0.162846
    2.W        -2.513306    0.105171    0.077944
    3.W        -0.045740   -2.041056   -0.603042
    4.W        -0.090135    1.822151   -1.489784
    5.W         0.083326    0.176472    2.112211
    6.O        -0.020930    0.350785   -0.055546
    7.O         4.185560    0.096699   -0.243030
    8.O        -4.224579    0.095916    0.159873
    9.O         1.917750   -1.556375   -0.716673
   10.O        -2.026015    1.527879   -1.019231
   11.O         2.011961    0.136552    1.635287
   12.O        -1.881401    0.140486    1.824161
   13.O        -0.135484   -1.528348   -2.436402
   14.O        -0.168035    1.276842   -3.141218
   15.O        -0.052538   -3.749321   -0.740115
   16.O        -0.084641    3.549877   -1.425693
   17.O         0.041417   -1.755215    1.242088
   18.O         0.097497    1.879271    2.350557
   19.O         0.163618   -0.552894    3.816221
   20.O        -2.013273   -1.555496   -0.527123
   21.O         1.883016    1.529140   -1.205977
   22.H         0.200237   -0.003551    4.630857
   23.H        -0.153987   -0.632875   -2.860815
 <Sep08-2020> <06:00:42>  >>>> CORORT
 <Sep08-2020> <06:00:42>  >>>> CLSMAT
 <Sep08-2020> <06:00:42>  >>>> ORTHON
 <Sep08-2020> <06:00:42>  >>>> GENPT
 <Sep08-2020> <06:00:42>  Block Length= 128
 <Sep08-2020> <06:00:43>  >>>> PTBAS
 <Sep08-2020> <06:00:47>  combining surface points...
 <Sep08-2020> <06:00:47>  combining surface points...
 <Sep08-2020> <06:00:47>  combining surface points...
 <Sep08-2020> <06:00:47>  >>>> CYCLE
 <Sep08-2020> <06:00:54>              |Error|         MaxErr       Wt(A-DIIS)
 <Sep08-2020> <06:00:54>      1      0.17726793      0.03096407
 <Sep08-2020> <06:00:59>      2      0.46961044      0.08266772    100.0
 <Sep08-2020> <06:01:03>      3      0.12922423      0.01349700    100.0
 <Sep08-2020> <06:01:07>      4      0.16629617      0.02768057    100.0
 <Sep08-2020> <06:01:11>      5      0.58910998      0.08572110    100.0
 <Sep08-2020> <06:01:15>      6      0.19204723      0.02973596    100.0
 <Sep08-2020> <06:01:19>      7      0.08915700      0.01312919     12.3
 <Sep08-2020> <06:01:23>      8      0.03191099      0.00413542      3.2
 <Sep08-2020> <06:01:27>      9      0.01289314      0.00246690      1.5
 <Sep08-2020> <06:01:31>     10      0.00444911      0.00052818      0.0
 <Sep08-2020> <06:01:35>     11      0.00192041      0.00027527      0.0
 <Sep08-2020> <06:01:39>     12      0.00073607      0.00015781      0.0
 <Sep08-2020> <06:01:42>     13      0.00039718      0.00006820      0.0
 <Sep08-2020> <06:01:46>     14      0.00015102      0.00002000      0.0
 <Sep08-2020> <06:01:50>     15      0.00007760      0.00001214      0.0
 <Sep08-2020> <06:01:54>     16      0.00004218      0.00000967      0.0
 <Sep08-2020> <06:01:58>     17      0.00002583      0.00000556      0.0
 <Sep08-2020> <06:02:02>     18      0.00000752      0.00000115      0.0
 <Sep08-2020> <06:02:05>     19      0.00000685      0.00000076      0.0
 <Sep08-2020> <06:02:07>  SCF converged
 <Sep08-2020> <06:02:09>     20      0.00000428      0.00000073      0.0
 <Sep08-2020> <06:02:11>  >>>> TOTEN
 <Sep08-2020> <06:02:16>  >>>> POPAN
 <Sep08-2020> <06:02:16>  >>>> DEBYE
 <Sep08-2020> <06:02:16>  >>>> ENGRAD
 <Sep08-2020> <06:02:30>  current energy                               -6.78697788 Hartree
 <Sep08-2020> <06:02:30>  energy change                      -0.00000459     0.00100000    T
 <Sep08-2020> <06:02:30>  constrained gradient max            0.00115061     0.00100000    F
 <Sep08-2020> <06:02:30>  constrained gradient rms            0.00030402     0.00066667    T
 <Sep08-2020> <06:02:30>  gradient max                        0.00115061
 <Sep08-2020> <06:02:30>  gradient rms                        0.00030402
 <Sep08-2020> <06:02:30>  cart. step max                      0.00110089     0.01000000    T
 <Sep08-2020> <06:02:30>  cart. step rms                      0.00040847     0.00666667    T
  Coordinates in Geometry Cycle 58
    Atom         X           Y           Z   (Angstrom)
    1.W         2.474390    0.104739   -0.162684
    2.W        -2.513218    0.105279    0.078276
    3.W        -0.046214   -2.041279   -0.603024
    4.W        -0.089913    1.822064   -1.489996
    5.W         0.083458    0.176554    2.112321
    6.O        -0.020856    0.351478   -0.055140
    7.O         4.185844    0.096821   -0.241991
    8.O        -4.224451    0.095397    0.159751
    9.O         1.917569   -1.555787   -0.717081
   10.O        -2.026149    1.527542   -1.019859
   11.O         2.011648    0.137653    1.635156
   12.O        -1.881375    0.140574    1.824322
   13.O        -0.135682   -1.528427   -2.436400
   14.O        -0.168337    1.276429   -3.141200
   15.O        -0.052870   -3.749449   -0.740542
   16.O        -0.084058    3.549808   -1.426715
   17.O         0.041437   -1.755267    1.241859
   18.O         0.097180    1.879071    2.351588
   19.O         0.164139   -0.553428    3.816174
   20.O        -2.013062   -1.555002   -0.527340
   21.O         1.883380    1.528508   -1.206515
   22.H         0.200326   -0.004007    4.630783
   23.H        -0.154657   -0.632630   -2.860039
 <Sep08-2020> <06:02:30>  >>>> CORORT
 <Sep08-2020> <06:02:30>  >>>> CLSMAT
 <Sep08-2020> <06:02:30>  >>>> ORTHON
 <Sep08-2020> <06:02:30>  >>>> GENPT
 <Sep08-2020> <06:02:31>  Block Length= 128
 <Sep08-2020> <06:02:31>  >>>> PTBAS
 <Sep08-2020> <06:02:35>  combining surface points...
 <Sep08-2020> <06:02:35>  combining surface points...
 <Sep08-2020> <06:02:35>  combining surface points...
 <Sep08-2020> <06:02:35>  >>>> CYCLE
 <Sep08-2020> <06:02:42>              |Error|         MaxErr       Wt(A-DIIS)
 <Sep08-2020> <06:02:42>      1      0.13115489      0.01454279
 <Sep08-2020> <06:02:47>      2      0.46931442      0.08310991    100.0
 <Sep08-2020> <06:02:51>      3      0.12991376      0.01355685    100.0
 <Sep08-2020> <06:02:55>      4      0.15751768      0.02641042    100.0
 <Sep08-2020> <06:02:59>      5      0.62469455      0.09054357    100.0
 <Sep08-2020> <06:03:03>      6      0.20235597      0.03153350    100.0
 <Sep08-2020> <06:03:07>      7      0.07422699      0.01231442     11.4
 <Sep08-2020> <06:03:11>      8      0.02572704      0.00471826      3.8
 <Sep08-2020> <06:03:15>      9      0.01202772      0.00252647      1.5
 <Sep08-2020> <06:03:19>     10      0.00452077      0.00061988      0.0
 <Sep08-2020> <06:03:23>     11      0.00159960      0.00020306      0.0
 <Sep08-2020> <06:03:27>     12      0.00070920      0.00013242      0.0
 <Sep08-2020> <06:03:31>     13      0.00029270      0.00004359      0.0
 <Sep08-2020> <06:03:35>     14      0.00013310      0.00001700      0.0
 <Sep08-2020> <06:03:39>     15      0.00006675      0.00000930      0.0
 <Sep08-2020> <06:03:43>     16      0.00003472      0.00000680      0.0
 <Sep08-2020> <06:03:47>     17      0.00001624      0.00000298      0.0
 <Sep08-2020> <06:03:50>     18      0.00000945      0.00000113      0.0
 <Sep08-2020> <06:03:54>     19      0.00000613      0.00000065      0.0
 <Sep08-2020> <06:03:55>  SCF converged
 <Sep08-2020> <06:03:58>     20      0.00000155      0.00000033      0.0
 <Sep08-2020> <06:03:59>  >>>> TOTEN
 <Sep08-2020> <06:04:05>  >>>> POPAN
 <Sep08-2020> <06:04:05>  >>>> DEBYE
 <Sep08-2020> <06:04:05>  >>>> ENGRAD
 <Sep08-2020> <06:04:19>  current energy                               -6.78697693 Hartree
 <Sep08-2020> <06:04:19>  energy change                       0.00000095     0.00100000    T
 <Sep08-2020> <06:04:19>  constrained gradient max            0.00081800     0.00100000    T
 <Sep08-2020> <06:04:19>  constrained gradient rms            0.00020754     0.00066667    T
 <Sep08-2020> <06:04:19>  gradient max                        0.00081800
 <Sep08-2020> <06:04:19>  gradient rms                        0.00020754
 <Sep08-2020> <06:04:19>  cart. step max                      0.00151514     0.01000000    T
 <Sep08-2020> <06:04:19>  cart. step rms                      0.00046663     0.00666667    T
 <Sep08-2020> <06:04:19>  GEOMETRY CONVERGED
 <Sep08-2020> <06:04:19>  Calculating Energy Terms for Final Geometry
  Coordinates in Geometry Cycle 58
    Atom         X           Y           Z   (Angstrom)
    1.W         2.474390    0.104739   -0.162684
    2.W        -2.513218    0.105279    0.078276
    3.W        -0.046214   -2.041279   -0.603024
    4.W        -0.089913    1.822064   -1.489996
    5.W         0.083458    0.176554    2.112321
    6.O        -0.020856    0.351478   -0.055140
    7.O         4.185844    0.096821   -0.241991
    8.O        -4.224451    0.095397    0.159751
    9.O         1.917569   -1.555787   -0.717081
   10.O        -2.026149    1.527542   -1.019859
   11.O         2.011648    0.137653    1.635156
   12.O        -1.881375    0.140574    1.824322
   13.O        -0.135682   -1.528427   -2.436400
   14.O        -0.168337    1.276429   -3.141200
   15.O        -0.052870   -3.749449   -0.740542
   16.O        -0.084058    3.549808   -1.426715
   17.O         0.041437   -1.755267    1.241859
   18.O         0.097180    1.879071    2.351588
   19.O         0.164139   -0.553428    3.816174
   20.O        -2.013062   -1.555002   -0.527340
   21.O         1.883380    1.528508   -1.206515
   22.H         0.200326   -0.004007    4.630783
   23.H        -0.154657   -0.632630   -2.860039
 <Sep08-2020> <06:04:19>  >>>> CORORT
 <Sep08-2020> <06:04:19>  >>>> CLSMAT
 <Sep08-2020> <06:04:19>  >>>> ORTHON
 <Sep08-2020> <06:04:19>  >>>> GENPT
 <Sep08-2020> <06:04:20>  Block Length= 128
 <Sep08-2020> <06:04:20>  >>>> PTBAS
 <Sep08-2020> <06:04:24>  combining surface points...
 <Sep08-2020> <06:04:24>  combining surface points...
 <Sep08-2020> <06:04:24>  combining surface points...
 <Sep08-2020> <06:04:24>  >>>> CYCLE
 <Sep08-2020> <06:04:31>              |Error|         MaxErr       Wt(A-DIIS)
 <Sep08-2020> <06:04:31>      1      0.11606577      0.01837465
 <Sep08-2020> <06:04:36>      2      0.47025017      0.10378957    100.0
 <Sep08-2020> <06:04:40>      3      0.12920555      0.01472864    100.0
 <Sep08-2020> <06:04:44>      4      0.16254970      0.03348469    100.0
 <Sep08-2020> <06:04:48>      5      0.60061889      0.11146165    100.0
 <Sep08-2020> <06:04:52>      6      0.19549966      0.03851171    100.0
 <Sep08-2020> <06:04:56>      7      0.08138399      0.01565971     14.8
 <Sep08-2020> <06:05:00>      8      0.03254554      0.00605003      5.1
 <Sep08-2020> <06:05:04>      9      0.01357986      0.00322910      2.3
 <Sep08-2020> <06:05:08>     10      0.00462077      0.00074232      0.0
 <Sep08-2020> <06:05:12>     11      0.00180187      0.00030401      0.0
 <Sep08-2020> <06:05:15>     12      0.00073091      0.00018339      0.0
 <Sep08-2020> <06:05:19>     13      0.00034709      0.00007070      0.0
 <Sep08-2020> <06:05:23>     14      0.00014397      0.00002258      0.0
 <Sep08-2020> <06:05:27>     15      0.00007374      0.00001434      0.0
 <Sep08-2020> <06:05:31>     16      0.00003978      0.00001030      0.0
 <Sep08-2020> <06:05:35>     17      0.00002139      0.00000562      0.0
 <Sep08-2020> <06:05:38>     18      0.00000786      0.00000150      0.0
 <Sep08-2020> <06:05:42>     19      0.00000538      0.00000068      0.0
 <Sep08-2020> <06:05:44>  SCF converged
 <Sep08-2020> <06:05:46>     20      0.00000374      0.00000084      0.0
 <Sep08-2020> <06:05:49>  >>>> TOTEN
 <Sep08-2020> <06:06:00>  QTAIM: determining topology...
 <Sep08-2020> <06:06:09>  >>>> POPAN
 <Sep08-2020> <06:06:09>  >>>> DEBYE
 <Sep08-2020> <06:06:09>  >>>> AMETS
 <Sep08-2020> <06:06:09>  >>>> POPUL
 <Sep08-2020> <06:06:10>   Bond Energy          -6.78697693 a.u.
 <Sep08-2020> <06:06:10>   Bond Energy        -184.68303911 eV
 <Sep08-2020> <06:06:10>   Bond Energy       -4258.89       kcal/mol
 <Sep08-2020> <06:06:10>  >>>> ENHESS
 <Sep08-2020> <06:06:26>  === NUCLEUS:     1
 <Sep08-2020> <06:10:50>  === NUCLEUS:     2
 <Sep08-2020> <06:15:03>  === NUCLEUS:     3
 <Sep08-2020> <06:19:20>  === NUCLEUS:     4
 <Sep08-2020> <06:23:43>  === NUCLEUS:     5
 <Sep08-2020> <06:28:04>  === NUCLEUS:     6
 <Sep08-2020> <06:32:05>  === NUCLEUS:     7
 <Sep08-2020> <06:35:51>  === NUCLEUS:     8
 <Sep08-2020> <06:39:42>  === NUCLEUS:     9
 <Sep08-2020> <06:43:48>  === NUCLEUS:    10
 <Sep08-2020> <06:47:45>  === NUCLEUS:    11
 <Sep08-2020> <06:51:51>  === NUCLEUS:    12
 <Sep08-2020> <06:56:00>  === NUCLEUS:    13
 <Sep08-2020> <07:00:01>  === NUCLEUS:    14
 <Sep08-2020> <07:04:08>  === NUCLEUS:    15
 <Sep08-2020> <07:08:10>  === NUCLEUS:    16
 <Sep08-2020> <07:12:18>  === NUCLEUS:    17
 <Sep08-2020> <07:16:19>  === NUCLEUS:    18
 <Sep08-2020> <07:20:32>  === NUCLEUS:    19
 <Sep08-2020> <07:24:39>  === NUCLEUS:    20
 <Sep08-2020> <07:28:46>  === NUCLEUS:    21
 <Sep08-2020> <07:32:48>  === NUCLEUS:    22
 <Sep08-2020> <07:36:42>  === NUCLEUS:    23
 <Sep08-2020> <07:40:38>  >>>> CALC_HESS_PMAT
 <Sep08-2020> <07:41:23>  >>>> CALC_HESS_WMAT
 <Sep08-2020> <07:41:31>  NORMAL TERMINATION
 <Sep08-2020> <07:41:31>  END
