 *******************************************************************************
 *                                                                             *
 *  -------------------------------------                                      *
 *   Amsterdam Density Functional  (ADF)         2019                          *
 *  -------------------------------------                                      *
 *                                               r79301 2019-11-09             *
 *                                                                             *
 *                                                                             *
 *                            =====================                            *
 *                            |                   |                            *
 *                            |     D I R A C     |                            *
 *                            |                   |                            *
 *                            =====================                            *
 *                                                                             *
 *                                                                             *
 *   Online information and documentation:  https://www.scm.com/support/       *
 *   E-mail:  support@scm.com   info@scm.com                                   *
 *                                                                             *
 *   Scientific publications using ADF results must be properly referenced     *
 *   See the User Manuals (or the web site) for recommended citations          *
 *   The terms and conditions of the End User License Agreement apply to       *
 *   the use of ADF, https://www.scm.com/license-terms/                        *
 *                                                                             *
 **********************  x86_64_linux_intel / intelmpi  ************************
 
  
 DIRAC 2019  RunTime: Dec11-2023 10:47:00  Nodes: 1  Procs: 1

 Temporary files are created in /scratch/kid_0.1538932812 (0x58465342)

1
 OXYGEN ATOM 1s CORE RELATIVISTIC, Point Nuc, A and c from li
 N J RN H ZN XION ANUC CLIGHT
 5000    4100.00000000197.36710137  8.00000000  0.00000000   15.994914  0.1370360E+03
  PH   PHI     EPS        DEL        DELRVR
  0.30  0.30     2500.00  0.00001000  0.00001000
 IDIRC  NC1  NDEBU NPRIN  IPUN IRCOR IWCOR
   1   300     0     0     0     0     1
   XALPHA      XLATTER      RNUC
  0.70000000  0.00000000  0.00000000 Point Charge
   XN   XL   XJ      XE          XZ      XDELL
  1.0  0.0  0.5      -5.000       2.000     0.00000
  2.0  0.0  0.5      -1.000       2.000     0.00000
  2.0  1.0  0.5      -1.000       2.000     0.00000
  2.0  1.0  1.5      -1.000       2.000     0.00000
 ICORP=  0  NPCL=  0  DEMP=0.00  PEPS=0.000000
 R(1)=  0.1000000E-08 D=  0.1005080E+01 RNUC=  0.0000000E+00
 converged at cycle   28  DENSITY AVERAGING    0.2400
  MAXIMUM ERROR IN R.V(R) IS   0.81125670E-05
 Q,EY,EV,EZ,ESUM,ETOT,RHO  0.800000E+01 -0.101247E+02 -0.114961E+03 -0.177573E+03 -0.405053E+02 -0.743427E+02  0.414766E-14


 DIRAC CALCULATION
1                    OXYGEN ATOM 1s CORE RELATIVISTIC, Point Nuc, A and c from libtc


 EXCHANGE COEFFICIENT=  0.7000000           TAIL CORRECTION=  0.           NUCLEAR RADIUS=  0.000E+00
0                       ORBITAL    N    L    J     ELECTRONS     EIGENVALUE                DELTA OF EIGENV.

                          1S1/2  1.0  0.0  0.5     2.000       -0.1880014E+02                 0.7264358E-06
                          2S1/2  2.0  0.0  0.5     2.000       -0.8412236E+00                 0.5932752E-05
                          2P1/2  2.0  1.0  0.5     2.000       -0.3063203E+00                 0.5998471E-05
                          2P3/2  2.0  1.0  1.5     2.000       -0.3049609E+00                 0.5986971E-05


                                        NUCLEAR CHARGE=    8.000000
                            INTEGRAL OF CHARGE DENSITY=    8.000000
                           SUM OF THE ORBITAL ENERGIES=    -40.5053
                                          TOTAL ENERGY=    -74.3427
                                        KINETIC ENERGY=     74.4552
                             NUCLEAR ATTRACTION ENERGY=   -177.5730
                             ELECTRON REPULSION ENERGY=     36.3686
                                       EXCHANGE ENERGY=     -7.5935

 *******************************************************************************

                             D I R A C   E X I T
 NORMAL TERMINATION



 =================
 Timing Statistics
 =================
  
 Total Used :                     CPU=        0.12      System=        0.00     Elapsed=        0.14

 Calls  Section                     ( Mean, Percentage )
 ---------------------------------------------------------------------------------------------------
     2  ><      ................      0.00    0.00             0.00    0.00             0.00    0.00
     1  EXIT PROCEDURE .........      0.12  100.00             0.00  100.00             0.14  100.00


 Currently Open Files (EXIT00)
 ====================

 Unit    Access Format  Status   Type       Ident (file)
 -------------------------------------------------------
   3      SEQ    FORM   TRANSP  NORMAL      LOGFILE
                                          ( logfile )
 
Create O   file=TZP-O.1s
XC
  GGA PBE
End
relativistic ZORA
Corepotentials t12.rel
End

 *******************************************************************************
 *                                                                             *
 *  -------------------------------------                                      *
 *   Amsterdam Density Functional  (ADF)         2019                          *
 *  -------------------------------------                                      *
 *                                               r79301 2019-11-09             *
 *                                                                             *
 *                                                                             *
 *                              =================                              *
 *                              |               |                              *
 *                              |     A D F     |                              *
 *                              |               |                              *
 *                              =================                              *
 *                                                                             *
 *                                                                             *
 *   Online information and documentation:  https://www.scm.com/support/       *
 *   E-mail:  support@scm.com   info@scm.com                                   *
 *                                                                             *
 *   Scientific publications using ADF results must be properly referenced     *
 *   See the User Manuals (or the web site) for recommended citations          *
 *   The terms and conditions of the End User License Agreement apply to       *
 *   the use of ADF, https://www.scm.com/license-terms/                        *
 *                                                                             *
 **********************  x86_64_linux_intel / intelmpi  ************************
 
  
 ADF 2019  RunTime: Dec11-2023 10:47:02  Nodes: 1  Procs: 1

 Temporary files are created in /scratch/kid_0.2144371930 (0x58465342)

 Oxygen (TZP, 1s frozen)



 ===========================
 A T T A C H E D   F I L E S
 ===========================
  
 CREATE - Data File:    TZP-O.1s
                        Oxygen (TZP, 1s frozen)
 Core Potentials:
         file : t12.rel



 ===============================
 M O D E L   P A R A M E T E R S
 ===============================
  
 DENSITY FUNCTIONAL POTENTIAL (scf)
    LDA:                               PW92                                    == Not Default ==
    Gradient Corrections:              PBEc PBEx                               == Not Default ==

 SPIN  (restricted / unrestr.)
    Molecule:                          Restricted                               

 OTHER ASPECTS
    Relativistic Corrections:          scalar (ZORA,MAPA)                      == Not Default ==

    Nuclear Charge Density Model:      Point Charge Nuclei                      
    Core Treatment:                    Frozen Orbital(s)                        

    Hyperfine or Zeeman Interaction:   ---                                      



 =====================================
 S Y M M E T R Y ,   E L E C T R O N S
 =====================================
  
 Symmetry: ATOM

 Irreducible Representations, including subspecies
 -------------------------------------------------
 S
 P:x  P:y  P:z
 D:z2  D:x2-y2  D:xy  D:xz  D:yz
 F:z3  F:z  F:xyz  F:z2x  F:z2y  F:x  F:y


 Configuration of Valence Electrons
 ==================================

          Occupation Numbers
          -------------------------------------------------
 S        2
 P        4
 D        0
 F        0
          -------------------------------------------------

 Total:   6

 Net Charge: 0 (Nuclei minus Electrons)

 Preset values for MO occupations will be applied through SCF cycle no. 1000000
 Thereafter, the program will assign electrons to MOs that are spatially
 similar to the occupied MOs in a "reference" cycle ("KeepOrbitals").
 The reference cycle is always the PREVIOUS cycle: it will evolve with
 the SCF procedure.



 ================================
 (Slater-type)  F U N C T I O N S  ***  (Basis and Fit)  ***
 ================================
  

 Atom Type    1  (O)
 ==============

 Valence Basis Sets:   8
 -----------------------
   1 S    7.360000
   2 S    1.720000
   2 S    2.880000
   2 S    7.580000
   2 P    1.120000
   2 P    2.080000
   2 P    4.080000
   3 D    2.000000

 Frozen Core Shells
 ------------------
    S:  1


 BAS: List of all Elementary Cartesian Basis Functions
 =====================================================

 The numbering in the list below (to the right of the function characteristics) is referred
 to in print-outs of MO eigenvectors and Mulliken populations in the BAS representation
 (as contrasted to the SFO representation).

 Notes:
 1. The functions are characterized by a polynomial prefactor (powers of x,y,z and r) and
    an exponential decay factor alpha.
 2. Since the basis sets are specific for an atom TYPE, the individual functions occur on
    all atoms of that type.
 3. The word 'Core' in the left margin signals that it is a Core Function (CF) : not a
    degree of freedom in the valence set, but only used to ensure orthogonalization of
    the other valence basis functions on the frozen Core Orbitals.


 (power of) X  Y  Z  R     Alpha  on Atom
            ==========     =====     ==========

 O                                    1
                                  ---------------------------------------------------------------------------
    Core    0  0  0  0     7.360      1
            0  0  0  1     1.720      2
            0  0  0  1     2.880      3
            0  0  0  1     7.580      4
            1  0  0  0     1.120      5
            0  1  0  0     1.120      6
            0  0  1  0     1.120      7
            1  0  0  0     2.080      8
            0  1  0  0     2.080      9
            0  0  1  0     2.080     10
            1  0  0  0     4.080     11
            0  1  0  0     4.080     12
            0  0  1  0     4.080     13
            2  0  0  0     2.000     14
            1  1  0  0     2.000     15
            1  0  1  0     2.000     16
            0  2  0  0     2.000     17
            0  1  1  0     2.000     18
            0  0  2  0     2.000     19

 Total number of charge fitting functions (nprimf)        82
 Total number of Cartesian basis functions (naos)         19
 Total number of Cartesian core functions  (ncos)          1



 BAS: List of all Elementary Cartesian Basis Functions
 =====================================================

 The numbering in the list below (to the right of the function characteristics) is referred
 to in print-outs of MO eigenvectors and Mulliken populations in the BAS representation
 (as contrasted to the SFO representation).

 Notes:
 1. The functions are characterized by a polynomial prefactor (powers of x,y,z and r) and
    an exponential decay factor alpha.
 2. Since the basis sets are specific for an atom TYPE, the individual functions occur on
    all atoms of that type.
 3. The word 'Core' in the left margin signals that it is a Core Function (CF) : not a
    degree of freedom in the valence set, but only used to ensure orthogonalization of
    the other valence basis functions on the frozen Core Orbitals.


 (power of) X  Y  Z  R     Alpha  on Atom
            ==========     =====     ==========

 O                                    1
                                  ---------------------------------------------------------------------------
    Core    0  0  0  0     7.360      1
            0  0  0  1     1.720      2
            0  0  0  1     2.880      3
            0  0  0  1     7.580      4
            1  0  0  0     1.120      5
            0  1  0  0     1.120      6
            0  0  1  0     1.120      7
            1  0  0  0     2.080      8
            0  1  0  0     2.080      9
            0  0  1  0     2.080     10
            1  0  0  0     4.080     11
            0  1  0  0     4.080     12
            0  0  1  0     4.080     13
            2  0  0  0     2.000     14
            1  1  0  0     2.000     15
            1  0  1  0     2.000     16
            0  2  0  0     2.000     17
            0  1  1  0     2.000     18
            0  0  2  0     2.000     19
1
 ***************************************************************************************************



                                              ***********************
                                              *  T E C H N I C A L  *
                                              ***********************
  



 =============================================================
 P A R A L L E L I Z A T I O N  and  V E C T O R I Z A T I O N
 =============================================================
  
 Nr of parallel processes:                                1
 Maximum vector length in NumInt loops:                 128



 =====================
 S C F   U P D A T E S
 =====================
  
 Max. nr. of cycles:                               300
 Convergence criterion:                              0.0000000100
   secondary criterion:                              0.0000000100

 Mix parameter (when DIIS does not apply):           0.2000000000
 Special mix parameter for the first cycle:          1.0000000000
 Mixed ADIIS+SDIIS will be used                  
    Max number of expansion vectors:                10
    Pure ADIIS when Max([F,P]) is above              0.1000000000
    Pure SDIIS when Max([F,P]) is below              0.0010000000
 Automatic ElectronSmearing (in case of problematic SCF convergence) disabled



 =================
 P R E C I S I O N  ***  (General: NumInt, NeglectFunctionTails, ...)  ***
 =================
  

 NumInt:           Target precision:                12.0000000000
 -------           Initial precision:               10.0000000000
                   Min. precision (optimization):   10.0000000000

 Neglect Functions:          Basis functions:        0.1000000000E-13
 ------------------          Fit functions:          0.1000000000E-13



 ===========================
 L I N E A R   S C A L I N G
 ===========================
  

 Cut-off radii density fit:                        0.1000000000E-97
 Overlap cut-off criterion AO matrix elements:     0.1000000000E-97
 Cut-offs for Coulomb potential and fitted density:0.1000000000E-97
 Cut-off criterion for Coulomb multipole terms:    0.1000000000E-97
 Progressive Convergence parameter:                 0.000000000    
1
 ***************************************************************************************************



                                            ***************************
                                            *  C O M P U T A T I O N  *
                                            ***************************
  

 Number of elements of the density matrix on this node (used, total):       190       190



 ===========================================
 Numerical Integration : Fuzzy Cells (Becke)
 ===========================================
  
 Becke grid quality: VERYGOOD       
  
 Lebedev angular grid order:             min:  13 max:  41
 Nr. of radial points:                   min:  68 max:  68

 Total nr. of points:         68
 Nr. of blocks:                1
 Block length:                68
 Nr. of dummy points:          0


 Test of Precision of the Numerical Integration Grid
 ===================================================

 Integral of the Total Core Density:                   1.99999999865610
 Relative Error:                                      -6.720E-10



 ========================
 Density Fitting (zlmFit)
 ========================
  
 ZlmFit Fit Quality: VERYGOOD       
  
 Max L-expansion:                        min:   0 max:   0
 Nr. of radial interpolation points:     min: 140 max: 140



 =====
 S C F  ***  ScaSCF  ***
 =====
  

 CYCLE    1
 SCF Error: norm([F,P])=      0.000000000000, max([F,P])=      0.000000000000
 orbitals (Q,E):
 ---------------
 S :1...3            ( 2.00    -5.3654)  ( 0.00    -2.2073)  ( 0.00    23.6692)
 P :1...3            ( 4.00    -5.0045)  ( 0.00    -2.0150)  ( 0.00    -0.3846)
 D :1...1            ( 0.00    -2.0410)

 CYCLE    2
 SCF Error: norm([F,P])=      4.562993374873, max([F,P])=      2.528971113813
 orbitals (Q,E):
 ---------------
 S :1...2            ( 2.00    -0.1548)  ( 0.00     1.6948)
 P :1...2            ( 4.00     0.1773)  ( 0.00     0.9552)
 D :1...1            ( 0.00     1.4649)

 CYCLE    3
  SDIIS (wt  0.000):  0.3378  0.6622
 A-DIIS (wt  1.000):  0.4814  0.5186
  DIIS coefficients:  0.4814  0.5186
 SCF Error: norm([F,P])=      2.723155250500, max([F,P])=      1.798667049295
 orbitals (Q,E):
 ---------------
 S :1...2            ( 2.00    -1.1093)  ( 0.00     0.7549)
 P :1...2            ( 4.00    -0.5518)  ( 0.00     0.2590)
 D :1...1            ( 0.00     0.8910)

 CYCLE    4
  SDIIS (wt  0.000):  0.0919  0.9081
 A-DIIS (wt  1.000):  0.0000  1.0000
  DIIS coefficients:  0.0000  1.0000
 SCF Error: norm([F,P])=      0.289027138405, max([F,P])=      0.130648623511
 orbitals (Q,E):
 ---------------
 S :1...2            ( 2.00    -0.7707)  ( 0.00     0.9912)
 P :1...2            ( 4.00    -0.2284)  ( 0.00     0.4046)
 D :1...1            ( 0.00     1.1288)

 CYCLE    5
  SDIIS (wt  0.000):  0.0260  0.6740  0.3001
 A-DIIS (wt  1.000):  0.0000  0.5764  0.4236
  DIIS coefficients:  0.0000  0.5764  0.4236
 SCF Error: norm([F,P])=      0.416615089426, max([F,P])=      0.232643669786
 orbitals (Q,E):
 ---------------
 S :1...2            ( 2.00    -0.8764)  ( 0.00     0.9107)
 P :1...2            ( 4.00    -0.3280)  ( 0.00     0.3557)
 D :1...1            ( 0.00     1.0703)

 CYCLE    6
  SDIIS (wt  0.942):  0.0005  0.0237 -0.0203  0.9960
 A-DIIS (wt  0.058):  0.0000  0.0000  0.0000  1.0000
  DIIS coefficients:  0.0005  0.0224 -0.0191  0.9962
 SCF Error: norm([F,P])=      0.013723272809, max([F,P])=      0.006719036732
 orbitals (Q,E):
 ---------------
 S :1...2            ( 2.00    -0.8830)  ( 0.00     0.9058)
 P :1...2            ( 4.00    -0.3343)  ( 0.00     0.3521)
 D :1...1            ( 0.00     1.0657)

 CYCLE    7
  SDIIS (wt  1.000): -0.0000  0.0016  0.0023  0.0424  0.9537
  DIIS coefficients: -0.0000  0.0016  0.0023  0.0424  0.9537
 SCF Error: norm([F,P])=      0.001103645928, max([F,P])=      0.000634039171
 orbitals (Q,E):
 ---------------
 S :1...2            ( 2.00    -0.8827)  ( 0.00     0.9060)
 P :1...2            ( 4.00    -0.3340)  ( 0.00     0.3523)
 D :1...1            ( 0.00     1.0659)

 CYCLE    8
  SDIIS (wt  1.000): -0.0000 -0.0001  0.0000 -0.0032  0.0268  0.9765
  DIIS coefficients: -0.0000 -0.0001  0.0000 -0.0032  0.0268  0.9765
 SCF Error: norm([F,P])=      0.000035919805, max([F,P])=      0.000020263970
 orbitals (Q,E):
 ---------------
 S :1...2            ( 2.00    -0.8827)  ( 0.00     0.9060)
 P :1...2            ( 4.00    -0.3340)  ( 0.00     0.3522)
 D :1...1            ( 0.00     1.0659)

 CYCLE    9
  SDIIS (wt  1.000): -0.0000  0.0008  0.0188  0.9804
  DIIS coefficients: -0.0000  0.0008  0.0188  0.9804
 SCF Error: norm([F,P])=      0.000000326384, max([F,P])=      0.000000183924
 orbitals (Q,E):
 ---------------
 S :1...2            ( 2.00    -0.8827)  ( 0.00     0.9060)
 P :1...2            ( 4.00    -0.3340)  ( 0.00     0.3522)
 D :1...1            ( 0.00     1.0659)

 CYCLE   10
  SDIIS (wt  1.000):  0.0000  0.0003  0.9996
  DIIS coefficients:  0.0000  0.0003  0.9996
 SCF Error: norm([F,P])=      0.000000000559, max([F,P])=      0.000000000306
 orbitals (Q,E):
 ---------------
 S :1...2            ( 2.00    -0.8827)  ( 0.00     0.9060)
 P :1...2            ( 4.00    -0.3340)  ( 0.00     0.3522)
 D :1...1            ( 0.00     1.0659)

 SCF CONVERGED

 CYCLE   11
1
 ***************************************************************************************************



                                                *******************
                                                *  R E S U L T S  *
                                                *******************
  
 *** Using FIT density in Focky
  SDIIS (wt  1.000): -0.0000  0.0143  0.9857
  DIIS coefficients: -0.0000  0.0143  0.9857
 SCF Error: norm([F,P])=      0.000000000010, max([F,P])=      0.000000000006

 Scaled ZORA Orbital Energies, per Irrep and Spin:
 =================================================
                        Occup              E (au)              E (eV)       Diff (eV) with prev. cycle
                        -----      --------------------        ------       --------------------------
 S
               1        2.000     -0.88272313143209E+00       -24.020              -9.28E-11
               2        0.000      0.90601345014671E+00        24.654
               3        0.000      0.29578810816937E+02       804.880
 P
               1        4.000     -0.33400585272070E+00        -9.089              -8.94E-11
               2        0.000      0.35224911365993E+00         9.585
               3        0.000      0.38342927625315E+01       104.336
 D
               1        0.000      0.10658965783141E+01        29.005


 Partially Occupied:
               1 P                -0.33400585272070E+00
  
 HOMO :        1 S                -0.88272313143209E+00
 LUMO :        2 P                 0.35224911365993E+00
  


 Orbital Energies, all Irreps
 ========================================

 Irrep        no.  (spin)   Occup              E (au)                E (eV)
 ---------------------------------------------------------------------------
 S             1             2.00       -0.88272313143209E+00       -24.0201
 P             1             4.00       -0.33400585272070E+00        -9.0888
 P             2             0.00        0.35224911365993E+00         9.5852
 S             2             0.00        0.90601345014671E+00        24.6539
 D             1             0.00        0.10658965783141E+01        29.0045
 P             3             0.00        0.38342927625315E+01       104.3364
 S             3             0.00        0.29578810816937E+02       804.8804


 Scaled ZORA Orbital Energies of the Core Orbitals:
 ==================================================

 (Note that the atoms are grouped by atomtype, see the labels, and may hence NOT be in input order)

 AtomType  Orbital  Atom                   E (au)                        E (eV)
 --------  -------  ----           --------------------        ----------------
 O           1S        1          -0.18925919758629E+02                -515.000



 =======================================
 M U L L I K E N   P O P U L A T I O N S
 =======================================
  
 The survey below gives for each atom:
 a) the total charge (Z minus electrons)
 b) the net spin polarization (nr of electrons spin-A minus spin-B)
 c) for each spin the atomic electron valence density (integrated) per L-value.

 Atom              Charge    Spin density          S         P         D         F
 ----              ------    ------------       ------    ------    ------    ------
 1 O              -0.0000                       2.0000    4.0000    0.0000    0.0000

 Populations of individual BAS functions
 ----------------------------------------
 1 O            0.0005  0.9226  1.0966 -0.0196  0.3346  0.3346  0.3346  0.7512  0.7512  0.7512
                0.2476  0.2476  0.2476  0.0000  0.0000  0.0000  0.0000  0.0000  0.0000

 Gross Charges per Atom (Z minus electrons)
 ==========================================
            -0.0000
 Net Total: -0.00000000



 =======================================================================
 Electrostatic potential at the Nuclei due to electrons and other nuclei
 =======================================================================
  
         Atom                  Potential
         ----                  ---------
     1)   O                  22.20265662
 
 
 ========================
 No memory problems found
 ========================
 
 Maximum number of active allocate calls:         389
 
 *******************************************************************************

                             A D F   E X I T
 NORMAL TERMINATION



 =================
 Timing Statistics
 =================
  
 Total Used :                     CPU=        0.45      System=        0.05     Elapsed=        1.52

 Calls  Section                     ( Mean, Percentage )
 ---------------------------------------------------------------------------------------------------
     3  ><      ................      0.00    0.00             0.00    8.33             0.00    0.32
     1  INIT    ................      0.07   15.18             0.02   33.33             0.96   63.11
     1  GEOMET  ................      0.01    2.68             0.01   16.67             0.06    3.69
     1  INPUTA  ................      0.00    0.00             0.00    8.33             0.00    0.24
     1  MAINSY  ................      0.01    2.68             0.00    0.00             0.09    5.96
     1  SYMFIT  ................      0.00    0.00             0.00    0.00             0.02    1.16
     1  CORORT  ................      0.00    0.89             0.00    0.00             0.00    0.10
     1  SYMORB  ................      0.00    0.00             0.00    0.00             0.00    0.06
     1  CLSMAT  ................      0.00    0.89             0.00    0.00             0.01    0.38
     1  ORTHON  ................      0.00    0.89             0.00    0.00             0.01    0.37
     1  GENPT   ................      0.02    3.57             0.00    0.00             0.02    1.07
     1  PTBAS   ................      0.00    0.89             0.00    0.00             0.01    0.34
    11  FOCKY   ................      0.02   58.04             0.00    0.00             0.02   17.98
    11  FOCKTR  ................      0.00    4.46             0.00    8.33             0.00    0.44
    11  SDIIS   ................      0.00    3.57             0.00    0.00             0.00    2.13
     1  COREPS  ................      0.01    2.68             0.01   16.67             0.02    1.24
     1  POPAN   ................      0.00    0.00             0.00    8.33             0.01    0.38
     1  DEBYE   ................      0.00    0.00             0.00    0.00             0.00    0.13
     1  EXIT PROCEDURE .........      0.02    3.57             0.00    0.00             0.01    0.91


 Currently Open Files (EXIT00)
 ====================

 Unit    Access Format  Status   Type       Ident (file)
 -------------------------------------------------------
   3      SEQ    FORM   TRANSP  NORMAL      LOGFILE
                                          ( logfile )

 ***************************************************************************************************
 (LOGFILE)
 <Dec11-2023> <10:47:00>  DIRAC 2019  RunTime: Dec11-2023 10:47:00  Nodes: 1  Procs: 1
 <Dec11-2023> <10:47:00>  NORMAL TERMINATION
 <Dec11-2023> <10:47:00>  END
 <Dec11-2023> <10:47:02>  ADF 2019  RunTime: Dec11-2023 10:47:02  Nodes: 1  Procs: 1
 <Dec11-2023> <10:47:02>  Oxygen (TZP, 1s frozen)
 <Dec11-2023> <10:47:02>  RunType   : CREATE
 <Dec11-2023> <10:47:02>  Net Charge: 0 (Nuclei minus Electrons)
 <Dec11-2023> <10:47:02>  Symmetry  : ATOM
  Coordinates
    Atom         X           Y           Z   (Angstrom)
    1.O         0.000000    0.000000    0.000000
 <Dec11-2023> <10:47:03>  >>>> CORORT
 <Dec11-2023> <10:47:03>  >>>> CLSMAT
 <Dec11-2023> <10:47:03>  >>>> ORTHON
 <Dec11-2023> <10:47:03>  >>>> GENPT
 <Dec11-2023> <10:47:03>  Block Length=  68
 <Dec11-2023> <10:47:03>  >>>> PTBAS
 <Dec11-2023> <10:47:03>  >>>> CYCLE
 <Dec11-2023> <10:47:03>              |Error|         MaxErr       Wt(A-DIIS)
 <Dec11-2023> <10:47:03>      1      0.00000000      0.00000000
 <Dec11-2023> <10:47:03>      2      4.56299337      2.52897111
 <Dec11-2023> <10:47:03>      3      2.72315525      1.79866705    100.0
 <Dec11-2023> <10:47:03>      4      0.28902714      0.13064862    100.0
 <Dec11-2023> <10:47:03>      5      0.41661509      0.23264367    100.0
 <Dec11-2023> <10:47:03>      6      0.01372327      0.00671904      5.8
 <Dec11-2023> <10:47:03>      7      0.00110365      0.00063404      0.0
 <Dec11-2023> <10:47:03>      8      0.00003592      0.00002026      0.0
 <Dec11-2023> <10:47:03>      9      0.00000033      0.00000018      0.0
 <Dec11-2023> <10:47:03>     10      0.00000000      0.00000000      0.0
 <Dec11-2023> <10:47:03>  SCF converged
 <Dec11-2023> <10:47:03>     11      0.00000000      0.00000000      0.0
 <Dec11-2023> <10:47:03>  >>>> POPAN
 <Dec11-2023> <10:47:03>  >>>> DEBYE
 <Dec11-2023> <10:47:03>  NORMAL TERMINATION
 <Dec11-2023> <10:47:03>  END

 *******************************************************************************
 *                                                                             *
 *  -------------------------------------                                      *
 *   Amsterdam Density Functional  (ADF)         2019                          *
 *  -------------------------------------                                      *
 *                                               r79301 2019-11-09             *
 *                                                                             *
 *                                                                             *
 *                            =====================                            *
 *                            |                   |                            *
 *                            |     D I R A C     |                            *
 *                            |                   |                            *
 *                            =====================                            *
 *                                                                             *
 *                                                                             *
 *   Online information and documentation:  https://www.scm.com/support/       *
 *   E-mail:  support@scm.com   info@scm.com                                   *
 *                                                                             *
 *   Scientific publications using ADF results must be properly referenced     *
 *   See the User Manuals (or the web site) for recommended citations          *
 *   The terms and conditions of the End User License Agreement apply to       *
 *   the use of ADF, https://www.scm.com/license-terms/                        *
 *                                                                             *
 **********************  x86_64_linux_intel / intelmpi  ************************
 
  
 DIRAC 2019  RunTime: Dec11-2023 10:47:03  Nodes: 1  Procs: 1

 Temporary files are created in /scratch/kid_0.1178503519 (0x58465342)

1
 TUNGSTEN ATOM 4d CORE RELATIVISTIC, Point Nuc, A and c from 
 N J RN H ZN XION ANUC CLIGHT
 5000   22100.00000000197.36710137 74.00000000  0.00000000  183.950932  0.1370360E+03
  PH   PHI     EPS        DEL        DELRVR
  0.30  0.30     2500.00  0.00001000  0.00001000
 IDIRC  NC1  NDEBU NPRIN  IPUN IRCOR IWCOR
   1   300     0     0     0     0    14
   XALPHA      XLATTER      RNUC
  0.70000000  0.00000000  0.00000000 Point Charge
   XN   XL   XJ      XE          XZ      XDELL
  1.0  0.0  0.5   -2600.000       2.000     0.00000
  2.0  0.0  0.5    -425.000       2.000     0.00000
  2.0  1.0  0.5    -425.000       2.000     0.00000
  2.0  1.0  1.5    -425.000       4.000     0.00000
  3.0  0.0  0.5    -100.000       2.000     0.00000
  3.0  1.0  0.5    -100.000       2.000     0.00000
  3.0  1.0  1.5    -100.000       4.000     0.00000
  3.0  2.0  1.5     -80.000       4.000     0.00000
  3.0  2.0  2.5     -80.000       6.000     0.00000
  4.0  0.0  0.5     -22.000       2.000     0.00000
  4.0  1.0  0.5     -20.000       2.000     0.00000
  4.0  1.0  1.5     -20.000       4.000     0.00000
  4.0  2.0  1.5     -11.000       4.000     0.00000
  4.0  2.0  2.5     -11.000       6.000     0.00000
  4.0  3.0  2.5      -1.000       6.000     0.00000
  4.0  3.0  3.5      -1.000       8.000     0.00000
  5.0  0.0  0.5      -3.000       2.000     0.00000
  5.0  1.0  0.5      -2.200       2.000     0.00000
  5.0  1.0  1.5      -2.200       4.000     0.00000
  5.0  2.0  1.5      -0.500       4.000     0.00000
  5.0  2.0  2.5      -0.500       0.000     0.00000
  6.0  0.0  0.5      -0.200       2.000     0.00000
 ICORP=  0  NPCL=  0  DEMP=0.00  PEPS=0.000000
 R(1)=  0.1000000E-08 D=  0.1005080E+01 RNUC=  0.0000000E+00
 converged at cycle   63  DENSITY AVERAGING    0.1536
  MAXIMUM ERROR IN R.V(R) IS   0.78838062E-05
 Q,EY,EV,EZ,ESUM,ETOT,RHO  0.740000E+02 -0.431420E+03 -0.281568E+05 -0.403919E+05 -0.993885E+04 -0.161643E+05  0.726391E-09


 DIRAC CALCULATION
1                    TUNGSTEN ATOM 4d CORE RELATIVISTIC, Point Nuc, A and c from libtc


 EXCHANGE COEFFICIENT=  0.7000000           TAIL CORRECTION=  0.           NUCLEAR RADIUS=  0.000E+00
0                       ORBITAL    N    L    J     ELECTRONS     EIGENVALUE                DELTA OF EIGENV.

                          1S1/2  1.0  0.0  0.5     2.000       -0.2549514E+04                 0.5980248E-04
                          2S1/2  2.0  0.0  0.5     2.000       -0.4399118E+03                 0.5052420E-04
                          2P1/2  2.0  1.0  0.5     2.000       -0.4208427E+03                 0.5265062E-04
                          2P3/2  2.0  1.0  1.5     4.000       -0.3711192E+03                 0.5139441E-04
                          3S1/2  3.0  0.0  0.5     2.000       -0.1012881E+03                 0.3437035E-04
                          3P1/2  3.0  1.0  0.5     2.000       -0.9277148E+02                 0.3553128E-04
                          3P3/2  3.0  1.0  1.5     4.000       -0.8201733E+02                 0.3404634E-04
                          3D3/2  3.0  2.0  1.5     4.000       -0.6762803E+02                 0.3680712E-04
                          3D5/2  3.0  2.0  2.5     6.000       -0.6528623E+02                 0.3629511E-04
                          4S1/2  4.0  0.0  0.5     2.000       -0.2084139E+02                 0.1939427E-04
                          4P1/2  4.0  1.0  0.5     2.000       -0.1730737E+02                 0.1933978E-04
                          4P3/2  4.0  1.0  1.5     4.000       -0.1480597E+02                 0.1810922E-04
                          4D3/2  4.0  2.0  1.5     4.000       -0.8989319E+01                 0.1779394E-04
                          4D5/2  4.0  2.0  2.5     6.000       -0.8528007E+01                 0.1741170E-04
                          4F5/2  4.0  3.0  2.5     6.000       -0.1237480E+01                 0.1544089E-04
                          4F7/2  4.0  3.0  3.5     8.000       -0.1154634E+01                 0.1522033E-04
                          5S1/2  5.0  0.0  0.5     2.000       -0.2863514E+01                 0.7979521E-05
                          5P1/2  5.0  1.0  0.5     2.000       -0.1813289E+01                 0.7246225E-05
                          5P3/2  5.0  1.0  1.5     4.000       -0.1448762E+01                 0.6602120E-05
                          5D3/2  5.0  2.0  1.5     4.000       -0.1486933E+00                 0.3973088E-05
                          5D5/2  5.0  2.0  2.5     0.000       -0.1223153E+00                 0.3735081E-05
                          6S1/2  6.0  0.0  0.5     2.000       -0.1847434E+00                 0.1808440E-05


                                        NUCLEAR CHARGE=   74.000000
                            INTEGRAL OF CHARGE DENSITY=   74.000000
                           SUM OF THE ORBITAL ENERGIES=  -9938.8529
                                          TOTAL ENERGY= -16164.2530
                                        KINETIC ENERGY=  18217.9700
                             NUCLEAR ATTRACTION ENERGY= -40391.9132
                             ELECTRON REPULSION ENERGY=   6333.2551
                                       EXCHANGE ENERGY=   -323.5649

 *******************************************************************************

                             D I R A C   E X I T
 NORMAL TERMINATION



 =================
 Timing Statistics
 =================
  
 Total Used :                     CPU=        0.86      System=        0.00     Elapsed=        0.88

 Calls  Section                     ( Mean, Percentage )
 ---------------------------------------------------------------------------------------------------
     2  ><      ................      0.00    0.00             0.00    0.00             0.00    0.00
     1  EXIT PROCEDURE .........      0.86  100.00             0.00    0.00             0.88  100.00


 Currently Open Files (EXIT00)
 ====================

 Unit    Access Format  Status   Type       Ident (file)
 -------------------------------------------------------
   3      SEQ    FORM   TRANSP  NORMAL      LOGFILE
                                          ( logfile )
 
Create W   file=TZP-W.4d
XC
  GGA PBE
End
relativistic ZORA
Corepotentials t12.rel
End

 *******************************************************************************
 *                                                                             *
 *  -------------------------------------                                      *
 *   Amsterdam Density Functional  (ADF)         2019                          *
 *  -------------------------------------                                      *
 *                                               r79301 2019-11-09             *
 *                                                                             *
 *                                                                             *
 *                              =================                              *
 *                              |               |                              *
 *                              |     A D F     |                              *
 *                              |               |                              *
 *                              =================                              *
 *                                                                             *
 *                                                                             *
 *   Online information and documentation:  https://www.scm.com/support/       *
 *   E-mail:  support@scm.com   info@scm.com                                   *
 *                                                                             *
 *   Scientific publications using ADF results must be properly referenced     *
 *   See the User Manuals (or the web site) for recommended citations          *
 *   The terms and conditions of the End User License Agreement apply to       *
 *   the use of ADF, https://www.scm.com/license-terms/                        *
 *                                                                             *
 **********************  x86_64_linux_intel / intelmpi  ************************
 
  
 ADF 2019  RunTime: Dec11-2023 10:47:04  Nodes: 1  Procs: 1

 Temporary files are created in /scratch/kid_0.1669063945 (0x58465342)

 Tungsten (TZP, 4d frozen)



 ===========================
 A T T A C H E D   F I L E S
 ===========================
  
 CREATE - Data File:    TZP-W.4d
                        Tungsten (TZP, 4d frozen)
 Core Potentials:
         file : t12.rel



 ===============================
 M O D E L   P A R A M E T E R S
 ===============================
  
 DENSITY FUNCTIONAL POTENTIAL (scf)
    LDA:                               PW92                                    == Not Default ==
    Gradient Corrections:              PBEc PBEx                               == Not Default ==

 SPIN  (restricted / unrestr.)
    Molecule:                          Restricted                               

 OTHER ASPECTS
    Relativistic Corrections:          scalar (ZORA,MAPA)                      == Not Default ==

    Nuclear Charge Density Model:      Point Charge Nuclei                      
    Core Treatment:                    Frozen Orbital(s)                        

    Hyperfine or Zeeman Interaction:   ---                                      



 =====================================
 S Y M M E T R Y ,   E L E C T R O N S
 =====================================
  
 Symmetry: ATOM

 Irreducible Representations, including subspecies
 -------------------------------------------------
 S
 P:x  P:y  P:z
 D:z2  D:x2-y2  D:xy  D:xz  D:yz
 F:z3  F:z  F:xyz  F:z2x  F:z2y  F:x  F:y


 Configuration of Valence Electrons
 ==================================

          Occupation Numbers
          -------------------------------------------------
 S        2*2
 P        6
 D        4
 F        14
          -------------------------------------------------

 Total:   28

 Net Charge: 0 (Nuclei minus Electrons)

 Preset values for MO occupations will be applied through SCF cycle no. 1000000
 Thereafter, the program will assign electrons to MOs that are spatially
 similar to the occupied MOs in a "reference" cycle ("KeepOrbitals").
 The reference cycle is always the PREVIOUS cycle: it will evolve with
 the SCF procedure.



 ================================
 (Slater-type)  F U N C T I O N S  ***  (Basis and Fit)  ***
 ================================
  

 Atom Type    1  (W)
 ==============

 Valence Basis Sets:  25
 -----------------------
   1 S   52.000000
   2 S   33.250000
   3 S   19.100000
   4 S   11.650000
   2 P   36.850000
   3 P   16.500000
   4 P   11.550000
   3 D   20.100000
   4 D   10.300000
   1 S  163.900000
   5 S    6.050000
   5 S    3.950000
   6 S    2.850000
   6 S    1.800000
   6 S    1.140000
   5 P    5.900000
   5 P    4.000000
   5 P    2.700000
   5 D    4.150000
   5 D    2.250000
   5 D    1.200000
   4 F   13.550000
   4 F    7.050000
   4 F    3.550000
   6 P    1.800000

 Frozen Core Shells
 ------------------
    S:  4
    P:  3
    D:  2


 BAS: List of all Elementary Cartesian Basis Functions
 =====================================================

 The numbering in the list below (to the right of the function characteristics) is referred
 to in print-outs of MO eigenvectors and Mulliken populations in the BAS representation
 (as contrasted to the SFO representation).

 Notes:
 1. The functions are characterized by a polynomial prefactor (powers of x,y,z and r) and
    an exponential decay factor alpha.
 2. Since the basis sets are specific for an atom TYPE, the individual functions occur on
    all atoms of that type.
 3. The word 'Core' in the left margin signals that it is a Core Function (CF) : not a
    degree of freedom in the valence set, but only used to ensure orthogonalization of
    the other valence basis functions on the frozen Core Orbitals.


 (power of) X  Y  Z  R     Alpha  on Atom
            ==========     =====     ==========

 W                                    1
                                  ---------------------------------------------------------------------------
    Core    0  0  0  0    52.000      1
    Core    0  0  0  1    33.250      2
    Core    0  0  0  2    19.100      3
    Core    0  0  0  3    11.650      4
    Core    1  0  0  0    36.850      5
    Core    0  1  0  0    36.850      6
    Core    0  0  1  0    36.850      7
    Core    1  0  0  1    16.500      8
    Core    0  1  0  1    16.500      9
    Core    0  0  1  1    16.500     10
    Core    1  0  0  2    11.550     11
    Core    0  1  0  2    11.550     12
    Core    0  0  1  2    11.550     13
    Core    2  0  0  0    20.100     14
    Core    1  1  0  0    20.100     15
    Core    1  0  1  0    20.100     16
    Core    0  2  0  0    20.100     17
    Core    0  1  1  0    20.100     18
    Core    0  0  2  0    20.100     19
    Core    2  0  0  1    10.300     20
    Core    1  1  0  1    10.300     21
    Core    1  0  1  1    10.300     22
    Core    0  2  0  1    10.300     23
    Core    0  1  1  1    10.300     24
    Core    0  0  2  1    10.300     25
            0  0  0  0   163.900     26
            0  0  0  4     6.050     27
            0  0  0  4     3.950     28
            0  0  0  5     2.850     29
            0  0  0  5     1.800     30
            0  0  0  5     1.140     31
            1  0  0  3     5.900     32
            0  1  0  3     5.900     33
            0  0  1  3     5.900     34
            1  0  0  3     4.000     35
            0  1  0  3     4.000     36
            0  0  1  3     4.000     37
            1  0  0  3     2.700     38
            0  1  0  3     2.700     39
            0  0  1  3     2.700     40
            2  0  0  2     4.150     41
            1  1  0  2     4.150     42
            1  0  1  2     4.150     43
            0  2  0  2     4.150     44
            0  1  1  2     4.150     45
            0  0  2  2     4.150     46
            2  0  0  2     2.250     47
            1  1  0  2     2.250     48
            1  0  1  2     2.250     49
            0  2  0  2     2.250     50
            0  1  1  2     2.250     51
            0  0  2  2     2.250     52
            2  0  0  2     1.200     53
            1  1  0  2     1.200     54
            1  0  1  2     1.200     55
            0  2  0  2     1.200     56
            0  1  1  2     1.200     57
            0  0  2  2     1.200     58
            3  0  0  0    13.550     59
            2  1  0  0    13.550     60
            2  0  1  0    13.550     61
            1  2  0  0    13.550     62
            1  1  1  0    13.550     63
            1  0  2  0    13.550     64
            0  3  0  0    13.550     65
            0  2  1  0    13.550     66
            0  1  2  0    13.550     67
            0  0  3  0    13.550     68
            3  0  0  0     7.050     69
            2  1  0  0     7.050     70
            2  0  1  0     7.050     71
            1  2  0  0     7.050     72
            1  1  1  0     7.050     73
            1  0  2  0     7.050     74
            0  3  0  0     7.050     75
            0  2  1  0     7.050     76
            0  1  2  0     7.050     77
            0  0  3  0     7.050     78
            3  0  0  0     3.550     79
            2  1  0  0     3.550     80
            2  0  1  0     3.550     81
            1  2  0  0     3.550     82
            1  1  1  0     3.550     83
            1  0  2  0     3.550     84
            0  3  0  0     3.550     85
            0  2  1  0     3.550     86
            0  1  2  0     3.550     87
            0  0  3  0     3.550     88
            1  0  0  4     1.800     89
            0  1  0  4     1.800     90
            0  0  1  4     1.800     91

 Total number of charge fitting functions (nprimf)       329
 Total number of Cartesian basis functions (naos)         91
 Total number of Cartesian core functions  (ncos)         25



 BAS: List of all Elementary Cartesian Basis Functions
 =====================================================

 The numbering in the list below (to the right of the function characteristics) is referred
 to in print-outs of MO eigenvectors and Mulliken populations in the BAS representation
 (as contrasted to the SFO representation).

 Notes:
 1. The functions are characterized by a polynomial prefactor (powers of x,y,z and r) and
    an exponential decay factor alpha.
 2. Since the basis sets are specific for an atom TYPE, the individual functions occur on
    all atoms of that type.
 3. The word 'Core' in the left margin signals that it is a Core Function (CF) : not a
    degree of freedom in the valence set, but only used to ensure orthogonalization of
    the other valence basis functions on the frozen Core Orbitals.


 (power of) X  Y  Z  R     Alpha  on Atom
            ==========     =====     ==========

 W                                    1
                                  ---------------------------------------------------------------------------
    Core    0  0  0  0    52.000      1
    Core    0  0  0  1    33.250      2
    Core    0  0  0  2    19.100      3
    Core    0  0  0  3    11.650      4
    Core    1  0  0  0    36.850      5
    Core    0  1  0  0    36.850      6
    Core    0  0  1  0    36.850      7
    Core    1  0  0  1    16.500      8
    Core    0  1  0  1    16.500      9
    Core    0  0  1  1    16.500     10
    Core    1  0  0  2    11.550     11
    Core    0  1  0  2    11.550     12
    Core    0  0  1  2    11.550     13
    Core    2  0  0  0    20.100     14
    Core    1  1  0  0    20.100     15
    Core    1  0  1  0    20.100     16
    Core    0  2  0  0    20.100     17
    Core    0  1  1  0    20.100     18
    Core    0  0  2  0    20.100     19
    Core    2  0  0  1    10.300     20
    Core    1  1  0  1    10.300     21
    Core    1  0  1  1    10.300     22
    Core    0  2  0  1    10.300     23
    Core    0  1  1  1    10.300     24
    Core    0  0  2  1    10.300     25
            0  0  0  0   163.900     26
            0  0  0  4     6.050     27
            0  0  0  4     3.950     28
            0  0  0  5     2.850     29
            0  0  0  5     1.800     30
            0  0  0  5     1.140     31
            1  0  0  3     5.900     32
            0  1  0  3     5.900     33
            0  0  1  3     5.900     34
            1  0  0  3     4.000     35
            0  1  0  3     4.000     36
            0  0  1  3     4.000     37
            1  0  0  3     2.700     38
            0  1  0  3     2.700     39
            0  0  1  3     2.700     40
            2  0  0  2     4.150     41
            1  1  0  2     4.150     42
            1  0  1  2     4.150     43
            0  2  0  2     4.150     44
            0  1  1  2     4.150     45
            0  0  2  2     4.150     46
            2  0  0  2     2.250     47
            1  1  0  2     2.250     48
            1  0  1  2     2.250     49
            0  2  0  2     2.250     50
            0  1  1  2     2.250     51
            0  0  2  2     2.250     52
            2  0  0  2     1.200     53
            1  1  0  2     1.200     54
            1  0  1  2     1.200     55
            0  2  0  2     1.200     56
            0  1  1  2     1.200     57
            0  0  2  2     1.200     58
            3  0  0  0    13.550     59
            2  1  0  0    13.550     60
            2  0  1  0    13.550     61
            1  2  0  0    13.550     62
            1  1  1  0    13.550     63
            1  0  2  0    13.550     64
            0  3  0  0    13.550     65
            0  2  1  0    13.550     66
            0  1  2  0    13.550     67
            0  0  3  0    13.550     68
            3  0  0  0     7.050     69
            2  1  0  0     7.050     70
            2  0  1  0     7.050     71
            1  2  0  0     7.050     72
            1  1  1  0     7.050     73
            1  0  2  0     7.050     74
            0  3  0  0     7.050     75
            0  2  1  0     7.050     76
            0  1  2  0     7.050     77
            0  0  3  0     7.050     78
            3  0  0  0     3.550     79
            2  1  0  0     3.550     80
            2  0  1  0     3.550     81
            1  2  0  0     3.550     82
            1  1  1  0     3.550     83
            1  0  2  0     3.550     84
            0  3  0  0     3.550     85
            0  2  1  0     3.550     86
            0  1  2  0     3.550     87
            0  0  3  0     3.550     88
            1  0  0  4     1.800     89
            0  1  0  4     1.800     90
            0  0  1  4     1.800     91
1
 ***************************************************************************************************



                                              ***********************
                                              *  T E C H N I C A L  *
                                              ***********************
  



 =============================================================
 P A R A L L E L I Z A T I O N  and  V E C T O R I Z A T I O N
 =============================================================
  
 Nr of parallel processes:                                1
 Maximum vector length in NumInt loops:                 128



 =====================
 S C F   U P D A T E S
 =====================
  
 Max. nr. of cycles:                               300
 Convergence criterion:                              0.0000000100
   secondary criterion:                              0.0000000100

 Mix parameter (when DIIS does not apply):           0.2000000000
 Special mix parameter for the first cycle:          1.0000000000
 Mixed ADIIS+SDIIS will be used                  
    Max number of expansion vectors:                10
    Pure ADIIS when Max([F,P]) is above              0.1000000000
    Pure SDIIS when Max([F,P]) is below              0.0010000000
 Automatic ElectronSmearing (in case of problematic SCF convergence) disabled



 =================
 P R E C I S I O N  ***  (General: NumInt, NeglectFunctionTails, ...)  ***
 =================
  

 NumInt:           Target precision:                12.0000000000
 -------           Initial precision:               10.0000000000
                   Min. precision (optimization):   10.0000000000

 Neglect Functions:          Basis functions:        0.1000000000E-13
 ------------------          Fit functions:          0.1000000000E-13



 ===========================
 L I N E A R   S C A L I N G
 ===========================
  

 Cut-off radii density fit:                        0.1000000000E-97
 Overlap cut-off criterion AO matrix elements:     0.1000000000E-97
 Cut-offs for Coulomb potential and fitted density:0.1000000000E-97
 Cut-off criterion for Coulomb multipole terms:    0.1000000000E-97
 Progressive Convergence parameter:                 0.000000000    
1
 ***************************************************************************************************



                                            ***************************
                                            *  C O M P U T A T I O N  *
                                            ***************************
  

 Number of elements of the density matrix on this node (used, total):      4186      4186



 ===========================================
 Numerical Integration : Fuzzy Cells (Becke)
 ===========================================
  
 Becke grid quality: VERYGOOD       
  
 Lebedev angular grid order:             min:  13 max:  41
 Nr. of radial points:                   min: 145 max: 145

 Total nr. of points:        145
 Nr. of blocks:                2
 Block length:                73
 Nr. of dummy points:          1


 Test of Precision of the Numerical Integration Grid
 ===================================================

 Integral of the Total Core Density:                  46.00000002324492
 Relative Error:                                       5.053E-10



 ========================
 Density Fitting (zlmFit)
 ========================
  
 ZlmFit Fit Quality: VERYGOOD       
  
 Max L-expansion:                        min:   0 max:   0
 Nr. of radial interpolation points:     min: 340 max: 340



 =====
 S C F  ***  ScaSCF  ***
 =====
  

 CYCLE    1
 SCF Error: norm([F,P])=      0.000000000000, max([F,P])=      0.000000000000
 orbitals (Q,E):
 ---------------
 S :1...6            ( 2.00   -28.2058)  ( 2.00   -16.4725)  ( 0.00   -10.3738)  ( 0.00    -6.6321)
                     ( 0.00    -4.0998)  ( 0.00  3013.3587)
 P :1...4            ( 6.00   -26.2502)  ( 0.00   -15.6809)  ( 0.00   -10.1451)  ( 0.00    -6.3840)
 D :1...3            ( 4.00   -20.3774)  ( 0.00   -10.3968)  ( 0.00    -5.4917)
 F :1...3            (14.00   -35.0607)  ( 0.00   -19.0417)  ( 0.00   -12.0152)

 CYCLE    2
  SDIIS (wt  0.000):  1.0000  0.0000
 A-DIIS (wt  1.000):  0.1993  0.8007
  DIIS coefficients:  0.1993  0.8007
 SCF Error: norm([F,P])=     40.907082825658, max([F,P])=      9.977402120499
 orbitals (Q,E):
 ---------------
 S :1...3            ( 2.00    -4.6780)  ( 2.00    -1.8638)  ( 0.00    -0.9989)
 P :1...2            ( 6.00    -3.4915)  ( 0.00    -1.5122)
 D :1...2            ( 4.00    -2.0619)  ( 0.00    -1.0071)
 F :1...2            (14.00    -1.8107)  ( 0.00     1.1317)

 CYCLE    3
  SDIIS (wt  0.000):  0.3180  0.6820
 A-DIIS (wt  1.000):  0.2378  0.7622
  DIIS coefficients:  0.2378  0.7622
 SCF Error: norm([F,P])=     22.137766809988, max([F,P])=      7.956550621467
 orbitals (Q,E):
 ---------------
 S :1...3            ( 2.00    -3.1832)  ( 2.00    -0.0954)  ( 0.00     0.0950)
 P :1...2            ( 6.00    -1.7164)  ( 0.00     0.0796)
 D :1...2            ( 4.00    -0.0523)  ( 0.00     0.2166)
 F :1...2            (14.00    -2.9552)  ( 0.00     2.1680)

 CYCLE    4
  SDIIS (wt  0.000): -0.1470  0.2408  0.9063
 A-DIIS (wt  1.000):  0.0000  0.1960  0.8040
  DIIS coefficients:  0.0000  0.1960  0.8040
 SCF Error: norm([F,P])=     11.319258211122, max([F,P])=      3.388378774288
 orbitals (Q,E):
 ---------------
 S :1...3            ( 2.00    -2.5382)  ( 2.00    -0.1744)  ( 0.00     0.0568)
 P :1...2            ( 6.00    -1.3109)  ( 0.00     0.0041)
 D :1...2            ( 4.00    -0.0593)  ( 0.00     0.1840)
 F :1...2            (14.00    -0.4483)  ( 0.00     2.6543)

 CYCLE    5
  SDIIS (wt  0.000): -0.0453 -0.0639  0.4150  0.6941
 A-DIIS (wt  1.000):  0.0000  0.0000  0.2956  0.7044
  DIIS coefficients:  0.0000  0.0000  0.2956  0.7044
 SCF Error: norm([F,P])=      6.468352795626, max([F,P])=      2.222974642389
 orbitals (Q,E):
 ---------------
 S :1...3            ( 2.00    -3.2723)  ( 2.00    -0.3187)  ( 0.00     0.0098)
 P :1...2            ( 6.00    -1.9237)  ( 0.00    -0.1006)
 D :1...2            ( 4.00    -0.3847)  ( 0.00     0.0899)
 F :1...2            (14.00    -1.8198)  ( 0.00     1.9560)

 CYCLE    6
  SDIIS (wt  0.000): -0.0085 -0.0399  0.0839  0.4322  0.5323
 A-DIIS (wt  1.000):  0.0000  0.0000  0.0000  0.2109  0.7891
  DIIS coefficients:  0.0000  0.0000  0.0000  0.2109  0.7891
 SCF Error: norm([F,P])=      2.472496419763, max([F,P])=      0.770355067313
 orbitals (Q,E):
 ---------------
 S :1...3            ( 2.00    -2.6997)  ( 2.00    -0.1670)  ( 0.00     0.0637)
 P :1...2            ( 6.00    -1.4226)  ( 0.00     0.0144)
 D :1...2            ( 4.00    -0.0756)  ( 0.00     0.1818)
 F :1...2            (14.00    -0.9561)  ( 0.00     2.4590)

 CYCLE    7
  SDIIS (wt  0.000): -0.0027  0.0194 -0.0224 -0.1264  0.3712  0.7611
 A-DIIS (wt  1.000):  0.0000  0.0000  0.0000  0.0000  0.2987  0.7013
  DIIS coefficients:  0.0000  0.0000  0.0000  0.0000  0.2987  0.7013
 SCF Error: norm([F,P])=      1.326888571519, max([F,P])=      0.409877416513
 orbitals (Q,E):
 ---------------
 S :1...3            ( 2.00    -2.9765)  ( 2.00    -0.2356)  ( 0.00     0.0368)
 P :1...2            ( 6.00    -1.6652)  ( 0.00    -0.0389)
 D :1...2            ( 4.00    -0.2166)  ( 0.00     0.1330)
 F :1...2            (14.00    -1.3505)  ( 0.00     2.2150)

 CYCLE    8
  SDIIS (wt  0.000): -0.0001 -0.0032  0.0101  0.0022 -0.1365  0.1637  0.9637
 A-DIIS (wt  1.000):  0.0000  0.0000  0.0000  0.0000  0.0000  0.1133  0.8867
  DIIS coefficients:  0.0000  0.0000  0.0000  0.0000  0.0000  0.1133  0.8867
 SCF Error: norm([F,P])=      0.417265552811, max([F,P])=      0.123103983384
 orbitals (Q,E):
 ---------------
 S :1...3            ( 2.00    -2.8269)  ( 2.00    -0.1934)  ( 0.00     0.0514)
 P :1...2            ( 6.00    -1.5319)  ( 0.00    -0.0062)
 D :1...2            ( 4.00    -0.1328)  ( 0.00     0.1598)
 F :1...2            (14.00    -1.1429)  ( 0.00     2.3483)

 CYCLE    9
  SDIIS (wt  0.000): -0.0000 -0.0005  0.0032 -0.0055 -0.0134 -0.0769  0.3889  0.7044
 A-DIIS (wt  1.000):  0.0000  0.0000  0.0000  0.0000  0.0000  0.0000  0.4605  0.5395
  DIIS coefficients:  0.0000  0.0000  0.0000  0.0000  0.0000  0.0000  0.4605  0.5395
 SCF Error: norm([F,P])=      0.436344656895, max([F,P])=      0.135977974745
 orbitals (Q,E):
 ---------------
 S :1...3            ( 2.00    -2.8921)  ( 2.00    -0.2089)  ( 0.00     0.0455)
 P :1...2            ( 6.00    -1.5884)  ( 0.00    -0.0182)
 D :1...2            ( 4.00    -0.1653)  ( 0.00     0.1491)
 F :1...2            (14.00    -1.2444)  ( 0.00     2.2903)

 CYCLE   10
  SDIIS (wt  0.791): -0.0000 -0.0000 -0.0008  0.0050  0.0002 -0.0572  0.0662  0.2518  0.7349
 A-DIIS (wt  0.209):  0.0000  0.0000  0.0000  0.0000  0.0000  0.0000  0.0000  0.0000  1.0000
  DIIS coefficients: -0.0000 -0.0000 -0.0006  0.0039  0.0002 -0.0453  0.0524  0.1992  0.7903
 SCF Error: norm([F,P])=      0.064290018174, max([F,P])=      0.021683563602
 orbitals (Q,E):
 ---------------
 S :1...3            ( 2.00    -2.8892)  ( 2.00    -0.2088)  ( 0.00     0.0453)
 P :1...2            ( 6.00    -1.5864)  ( 0.00    -0.0182)
 D :1...2            ( 4.00    -0.1648)  ( 0.00     0.1492)
 F :1...2            (14.00    -1.2344)  ( 0.00     2.2932)

 CYCLE   11
  SDIIS (wt  0.943):  0.0000  0.0000  0.0003 -0.0019 -0.0002  0.0169 -0.0071 -0.0713  1.0633
 A-DIIS (wt  0.057):  0.0000  0.0000  0.0000  0.0000  0.0000  0.0000  0.0000  0.0000  1.0000
  DIIS coefficients:  0.0000  0.0000  0.0003 -0.0018 -0.0002  0.0159 -0.0067 -0.0673  1.0597
 SCF Error: norm([F,P])=      0.019862243149, max([F,P])=      0.006614525832
 orbitals (Q,E):
 ---------------
 S :1...3            ( 2.00    -2.8906)  ( 2.00    -0.2091)  ( 0.00     0.0452)
 P :1...2            ( 6.00    -1.5875)  ( 0.00    -0.0184)
 D :1...2            ( 4.00    -0.1654)  ( 0.00     0.1490)
 F :1...2            (14.00    -1.2376)  ( 0.00     2.2919)

 CYCLE   12
  SDIIS (wt  1.000):  0.0000 -0.0000  0.0001  0.0002 -0.0010 -0.0025  0.0027  1.0005
  DIIS coefficients:  0.0000 -0.0000  0.0001  0.0002 -0.0010 -0.0025  0.0027  1.0005
 SCF Error: norm([F,P])=      0.001704368638, max([F,P])=      0.000557703294
 orbitals (Q,E):
 ---------------
 S :1...3            ( 2.00    -2.8904)  ( 2.00    -0.2090)  ( 0.00     0.0452)
 P :1...2            ( 6.00    -1.5874)  ( 0.00    -0.0184)
 D :1...2            ( 4.00    -0.1653)  ( 0.00     0.1490)
 F :1...2            (14.00    -1.2373)  ( 0.00     2.2920)

 CYCLE   13
  SDIIS (wt  1.000): -0.0000 -0.0000 -0.0000 -0.0001  0.0001 -0.0012  0.0054  0.1443  0.8513
  DIIS coefficients: -0.0000 -0.0000 -0.0000 -0.0001  0.0001 -0.0012  0.0054  0.1443  0.8513
 SCF Error: norm([F,P])=      0.000011644128, max([F,P])=      0.000003087302
 orbitals (Q,E):
 ---------------
 S :1...3            ( 2.00    -2.8904)  ( 2.00    -0.2090)  ( 0.00     0.0452)
 P :1...2            ( 6.00    -1.5874)  ( 0.00    -0.0184)
 D :1...2            ( 4.00    -0.1653)  ( 0.00     0.1490)
 F :1...2            (14.00    -1.2373)  ( 0.00     2.2920)

 CYCLE   14
  SDIIS (wt  1.000): -0.0000 -0.0001 -0.0006 -0.0016  1.0022
  DIIS coefficients: -0.0000 -0.0001 -0.0006 -0.0016  1.0022
 SCF Error: norm([F,P])=      0.000000013756, max([F,P])=      0.000000003650
 orbitals (Q,E):
 ---------------
 S :1...3            ( 2.00    -2.8904)  ( 2.00    -0.2090)  ( 0.00     0.0452)
 P :1...2            ( 6.00    -1.5874)  ( 0.00    -0.0184)
 D :1...2            ( 4.00    -0.1653)  ( 0.00     0.1490)
 F :1...2            (14.00    -1.2373)  ( 0.00     2.2920)

 SCF CONVERGED

 CYCLE   15
1
 ***************************************************************************************************



                                                *******************
                                                *  R E S U L T S  *
                                                *******************
  
 *** Using FIT density in Focky
  SDIIS (wt  1.000): -0.0000 -0.0000 -0.0330  1.0330
  DIIS coefficients: -0.0000 -0.0000 -0.0330  1.0330
 SCF Error: norm([F,P])=      0.000000001904, max([F,P])=      0.000000000603

 Scaled ZORA Orbital Energies, per Irrep and Spin:
 =================================================
                        Occup              E (au)              E (eV)       Diff (eV) with prev. cycle
                        -----      --------------------        ------       --------------------------
 S
               1        2.000     -0.28904146058127E+01       -78.652               1.69E-08
               2        2.000     -0.20903700188629E+00        -5.688               1.07E-08
               3        0.000      0.45235059600390E-01         1.231
               4        0.000      0.56065479131102E+00        15.256
               5        0.000      0.33274541694695E+01        90.545
               6        0.000      0.30455860934223E+04     82874.614
 P
               1        6.000     -0.15873724268739E+01       -43.195               1.66E-08
               2        0.000     -0.18381804002204E-01        -0.500
               3        0.000      0.75931517673518E+00        20.662
               4        0.000      0.46642512103918E+01       126.921
 D
               1        4.000     -0.16528259673378E+00        -4.498               1.44E-08
               2        0.000      0.14901440684398E+00         4.055
               3        0.000      0.12244232958062E+01        33.318
 F
               1       14.000     -0.12372769632872E+01       -33.668               2.06E-08
               2        0.000      0.22920435821192E+01        62.370
               3        0.000      0.17401159156906E+02       473.510


 Partially Occupied:
               1 D                -0.16528259673378E+00
  
 HOMO :        2 S                -0.20903700188629E+00
 LUMO :        2 P                -0.18381804002204E-01
  


 Orbital Energies, all Irreps
 ========================================

 Irrep        no.  (spin)   Occup              E (au)                E (eV)
 ---------------------------------------------------------------------------
 S             1             2.00       -0.28904146058127E+01       -78.6522
 P             1             6.00       -0.15873724268739E+01       -43.1946
 F             1            14.00       -0.12372769632872E+01       -33.6680
 S             2             2.00       -0.20903700188629E+00        -5.6882
 D             1             4.00       -0.16528259673378E+00        -4.4976
 P             2             0.00       -0.18381804002204E-01        -0.5002
 S             3             0.00        0.45235059600390E-01         1.2309
 D             2             0.00        0.14901440684398E+00         4.0549
 S             4             0.00        0.56065479131102E+00        15.2562
 P             3             0.00        0.75931517673518E+00        20.6620
 D             3             0.00        0.12244232958062E+01        33.3183
 F             2             0.00        0.22920435821192E+01        62.3697
 S             5             0.00        0.33274541694695E+01        90.5446
 P             4             0.00        0.46642512103918E+01       126.9207
 F             3             0.00        0.17401159156906E+02       473.5096
 S             6             0.00        0.30455860934223E+04     82874.6143


 Scaled ZORA Orbital Energies of the Core Orbitals:
 ==================================================

 (Note that the atoms are grouped by atomtype, see the labels, and may hence NOT be in input order)

 AtomType  Orbital  Atom                   E (au)                        E (eV)
 --------  -------  ----           --------------------        ----------------
 W           1S        1          -0.25482138824004E+04              -69340.428
             2S        1          -0.43960984780021E+03              -11962.393
             3S        1          -0.10127263228126E+03               -2755.769
             4S        1          -0.20907119428712E+02                -568.912
             2P        1          -0.38417169137868E+03              -10453.844
             3P        1          -0.84864891065853E+02               -2309.291
             4P        1          -0.15541477299623E+02                -422.905
             3D        1          -0.66165082684733E+02               -1800.444
             4D        1          -0.87737511763508E+01                -238.746



 =======================================
 M U L L I K E N   P O P U L A T I O N S
 =======================================
  
 The survey below gives for each atom:
 a) the total charge (Z minus electrons)
 b) the net spin polarization (nr of electrons spin-A minus spin-B)
 c) for each spin the atomic electron valence density (integrated) per L-value.

 Atom              Charge    Spin density          S         P         D         F
 ----              ------    ------------       ------    ------    ------    ------
 1 W              -0.0000                       4.0000    6.0000    4.0000   14.0000

 Populations of individual BAS functions
 ----------------------------------------
 1 W           -0.0024 -0.0016  0.0017  0.0821  0.0004  0.0004  0.0004 -0.0190 -0.0190 -0.0190
                0.1070  0.1070  0.1070  0.0007  0.0011  0.0011  0.0007  0.0011  0.0007  0.0102
                0.0153  0.0153  0.0102  0.0153  0.0102  0.0002  1.3184  0.6637  0.7095  1.0512
                0.1771  0.5899  0.5899  0.5899  1.2256  1.2256  1.2256  0.0879  0.0879  0.0879
                0.2040  0.3059  0.3059  0.2040  0.3059  0.2040  0.2699  0.4048  0.4048  0.2699
                0.4048  0.2699  0.0486  0.0728  0.0728  0.0486  0.0728  0.0486  0.2159  0.4319
                0.4319  0.4319  0.5399  0.4319  0.2159  0.4319  0.4319  0.2159  0.4698  0.9397
                0.9397  0.9397  1.1746  0.9397  0.4698  0.9397  0.9397  0.4698  0.1142  0.2284
                0.2284  0.2284  0.2855  0.2284  0.1142  0.2284  0.2284  0.1142  0.0081  0.0081
                0.0081

 Gross Charges per Atom (Z minus electrons)
 ==========================================
            -0.0000
 Net Total: -0.00000000



 =======================================================================
 Electrostatic potential at the Nuclei due to electrons and other nuclei
 =======================================================================
  
         Atom                  Potential
         ----                  ---------
     1)   W                 545.46052106
 
 
 ========================
 No memory problems found
 ========================
 
 Maximum number of active allocate calls:         487
 
 *******************************************************************************

                             A D F   E X I T
 NORMAL TERMINATION



 =================
 Timing Statistics
 =================
  
 Total Used :                     CPU=        1.34      System=        0.04     Elapsed=        1.42

 Calls  Section                     ( Mean, Percentage )
 ---------------------------------------------------------------------------------------------------
     3  ><      ................      0.00    0.30             0.00    0.00             0.00    0.29
     1  INIT    ................      0.07    5.09             0.01   20.00             0.08    5.73
     1  GEOMET  ................      0.01    0.90             0.01   20.00             0.02    1.74
     1  INPUTA  ................      0.00    0.00             0.00   10.00             0.00    0.27
     1  MAINSY  ................      0.02    1.20             0.00   10.00             0.02    1.69
     1  SYMFIT  ................      0.00    0.00             0.00   10.00             0.00    0.12
     1  CORORT  ................      0.00    0.00             0.00    0.00             0.00    0.13
     1  SYMORB  ................      0.00    0.00             0.00    0.00             0.00    0.07
     1  CLSMAT  ................      0.01    0.60             0.00    0.00             0.01    0.48
     1  ORTHON  ................      0.01    0.60             0.00    0.00             0.01    0.46
     1  GENPT   ................      0.02    1.80             0.00   10.00             0.03    2.13
     1  PTBAS   ................      0.00    0.30             0.00    0.00             0.01    0.48
    15  FOCKY   ................      0.07   79.04             0.00   20.00             0.07   75.87
    15  FOCKTR  ................      0.00    0.90             0.00    0.00             0.00    0.82
    15  SDIIS   ................      0.00    2.40             0.00    0.00             0.00    3.06
     1  COREPS  ................      0.07    5.09             0.00    0.00             0.07    4.80
     1  POPAN   ................      0.00    0.30             0.00    0.00             0.01    0.45
     1  DEBYE   ................      0.00    0.30             0.00    0.00             0.00    0.19
     1  EXIT PROCEDURE .........      0.02    1.20             0.00    0.00             0.02    1.21


 Currently Open Files (EXIT00)
 ====================

 Unit    Access Format  Status   Type       Ident (file)
 -------------------------------------------------------
   3      SEQ    FORM   TRANSP  NORMAL      LOGFILE
                                          ( logfile )

 ***************************************************************************************************
 (LOGFILE)
 <Dec11-2023> <10:47:00>  DIRAC 2019  RunTime: Dec11-2023 10:47:00  Nodes: 1  Procs: 1
 <Dec11-2023> <10:47:00>  NORMAL TERMINATION
 <Dec11-2023> <10:47:00>  END
 <Dec11-2023> <10:47:02>  ADF 2019  RunTime: Dec11-2023 10:47:02  Nodes: 1  Procs: 1
 <Dec11-2023> <10:47:02>  Oxygen (TZP, 1s frozen)
 <Dec11-2023> <10:47:02>  RunType   : CREATE
 <Dec11-2023> <10:47:02>  Net Charge: 0 (Nuclei minus Electrons)
 <Dec11-2023> <10:47:02>  Symmetry  : ATOM
  Coordinates
    Atom         X           Y           Z   (Angstrom)
    1.O         0.000000    0.000000    0.000000
 <Dec11-2023> <10:47:03>  >>>> CORORT
 <Dec11-2023> <10:47:03>  >>>> CLSMAT
 <Dec11-2023> <10:47:03>  >>>> ORTHON
 <Dec11-2023> <10:47:03>  >>>> GENPT
 <Dec11-2023> <10:47:03>  Block Length=  68
 <Dec11-2023> <10:47:03>  >>>> PTBAS
 <Dec11-2023> <10:47:03>  >>>> CYCLE
 <Dec11-2023> <10:47:03>              |Error|         MaxErr       Wt(A-DIIS)
 <Dec11-2023> <10:47:03>      1      0.00000000      0.00000000
 <Dec11-2023> <10:47:03>      2      4.56299337      2.52897111
 <Dec11-2023> <10:47:03>      3      2.72315525      1.79866705    100.0
 <Dec11-2023> <10:47:03>      4      0.28902714      0.13064862    100.0
 <Dec11-2023> <10:47:03>      5      0.41661509      0.23264367    100.0
 <Dec11-2023> <10:47:03>      6      0.01372327      0.00671904      5.8
 <Dec11-2023> <10:47:03>      7      0.00110365      0.00063404      0.0
 <Dec11-2023> <10:47:03>      8      0.00003592      0.00002026      0.0
 <Dec11-2023> <10:47:03>      9      0.00000033      0.00000018      0.0
 <Dec11-2023> <10:47:03>     10      0.00000000      0.00000000      0.0
 <Dec11-2023> <10:47:03>  SCF converged
 <Dec11-2023> <10:47:03>     11      0.00000000      0.00000000      0.0
 <Dec11-2023> <10:47:03>  >>>> POPAN
 <Dec11-2023> <10:47:03>  >>>> DEBYE
 <Dec11-2023> <10:47:03>  NORMAL TERMINATION
 <Dec11-2023> <10:47:03>  END
 <Dec11-2023> <10:47:03>  DIRAC 2019  RunTime: Dec11-2023 10:47:03  Nodes: 1  Procs: 1
 <Dec11-2023> <10:47:04>  NORMAL TERMINATION
 <Dec11-2023> <10:47:04>  END
 <Dec11-2023> <10:47:04>  ADF 2019  RunTime: Dec11-2023 10:47:04  Nodes: 1  Procs: 1
 <Dec11-2023> <10:47:04>  Tungsten (TZP, 4d frozen)
 <Dec11-2023> <10:47:04>  RunType   : CREATE
 <Dec11-2023> <10:47:04>  Net Charge: 0 (Nuclei minus Electrons)
 <Dec11-2023> <10:47:04>  Symmetry  : ATOM
  Coordinates
    Atom         X           Y           Z   (Angstrom)
    1.W         0.000000    0.000000    0.000000
 <Dec11-2023> <10:47:04>  >>>> CORORT
 <Dec11-2023> <10:47:04>  >>>> CLSMAT
 <Dec11-2023> <10:47:04>  >>>> ORTHON
 <Dec11-2023> <10:47:04>  >>>> GENPT
 <Dec11-2023> <10:47:04>  Block Length=  73
 <Dec11-2023> <10:47:04>  >>>> PTBAS
 <Dec11-2023> <10:47:04>  >>>> CYCLE
 <Dec11-2023> <10:47:04>              |Error|         MaxErr       Wt(A-DIIS)
 <Dec11-2023> <10:47:04>      1      0.00000000      0.00000000
 <Dec11-2023> <10:47:04>      2     40.90708283      9.97740212    100.0
 <Dec11-2023> <10:47:05>      3     22.13776681      7.95655062    100.0
 <Dec11-2023> <10:47:05>      4     11.31925821      3.38837877    100.0
 <Dec11-2023> <10:47:05>      5      6.46835280      2.22297464    100.0
 <Dec11-2023> <10:47:05>      6      2.47249642      0.77035507    100.0
 <Dec11-2023> <10:47:05>      7      1.32688857      0.40987742    100.0
 <Dec11-2023> <10:47:05>      8      0.41726555      0.12310398    100.0
 <Dec11-2023> <10:47:05>      9      0.43634466      0.13597797    100.0
 <Dec11-2023> <10:47:05>     10      0.06429002      0.02168356     20.9
 <Dec11-2023> <10:47:05>     11      0.01986224      0.00661453      5.7
 <Dec11-2023> <10:47:05>     12      0.00170437      0.00055770      0.0
 <Dec11-2023> <10:47:05>     13      0.00001164      0.00000309      0.0
 <Dec11-2023> <10:47:05>     14      0.00000001      0.00000000      0.0
 <Dec11-2023> <10:47:05>  SCF converged
 <Dec11-2023> <10:47:05>     15      0.00000000      0.00000000      0.0
 <Dec11-2023> <10:47:05>  >>>> POPAN
 <Dec11-2023> <10:47:05>  >>>> DEBYE
 <Dec11-2023> <10:47:05>  NORMAL TERMINATION
 <Dec11-2023> <10:47:05>  END


 Parallel Execution: Process Information
 ==============================================================================
 Rank   Node Name                              NodeID   MyNodeRank  NodeMaster
    0   kimik2194                                 0          0          0
    1   kimik2194                                 0          1         -1
    2   kimik2194                                 0          2         -1
    3   kimik2194                                 0          3         -1
    4   kimik2194                                 0          4         -1
    5   kimik2194                                 0          5         -1
    6   kimik2194                                 0          6         -1
    7   kimik2194                                 0          7         -1
    8   kimik2194                                 0          8         -1
    9   kimik2194                                 0          9         -1
   10   kimik2194                                 0         10         -1
   11   kimik2194                                 0         11         -1
   12   kimik2194                                 0         12         -1
   13   kimik2194                                 0         13         -1
   14   kimik2194                                 0         14         -1
[...]
 <Dec11-2023> <10:51:13>  cart. step max                      0.00194913     0.01000000    T
 <Dec11-2023> <10:51:13>  cart. step rms                      0.00072995     0.00666667    T
 <Dec11-2023> <10:51:13>  GEOMETRY CONVERGED
 <Dec11-2023> <10:51:13>  Calculating Energy Terms for Final Geometry
  Coordinates in Geometry Cycle 2
    Atom         X           Y           Z   (Angstrom)
    1.W        13.700547   11.260089    2.634463
    2.W        14.066176    8.033209    4.115683
    3.W        11.921815   10.278599    5.408074
    4.W         9.522631   11.369773    3.298303
    5.W        11.379417    8.751818    2.234551
    6.O        13.206382   11.673962    0.959746
    7.O        13.374695    9.090627    2.275398
    8.O        13.861606    6.415097    3.343649
    9.O        13.764601   10.199424    4.601354
   10.O        14.269168    7.600165    5.855808
   11.O        11.623313   10.796445    3.214002
   12.O        11.988017    8.384491    4.296194
   13.O        10.062129   10.419089    5.183581
   14.O         7.778743   11.101620    3.722995
   15.O         9.423898   11.797486    1.552809
   16.O         9.649501    9.252161    2.755237
   17.O        12.253884   11.911614    6.071474
   18.O        11.983376    9.315094    6.921483
   19.O        11.152666    6.981305    2.037466
   20.O        15.773242    8.415817    3.658945
   21.O        11.326613    9.257124    0.513301
   22.O        15.480930   11.080042    2.429403
   23.O        13.612887   12.857314    3.448677
   24.O         9.843887   12.986848    4.018471
 <Dec11-2023> <10:51:14>  >>>> CORORT
 <Dec11-2023> <10:51:14>  >>>> CLSMAT
 <Dec11-2023> <10:51:14>  >>>> ORTHON
 <Dec11-2023> <10:51:14>  >>>> GENPT
 <Dec11-2023> <10:51:14>  Block Length= 128
 <Dec11-2023> <10:51:14>  >>>> PTBAS
 <Dec11-2023> <10:51:18>  combining surface points...
 <Dec11-2023> <10:51:18>  combining surface points...
 <Dec11-2023> <10:51:18>  combining surface points...
 <Dec11-2023> <10:51:18>  >>>> CYCLE
 <Dec11-2023> <10:51:23>              |Error|         MaxErr       Wt(A-DIIS)
 <Dec11-2023> <10:51:23>      1      0.21298742      0.01004254
 <Dec11-2023> <10:51:28>      2      0.76007646      0.03585417    100.0
 <Dec11-2023> <10:51:32>      3      0.24971406      0.01266600    100.0
 <Dec11-2023> <10:51:37>      4      0.33917906      0.01896191    100.0
 <Dec11-2023> <10:51:41>      5      1.14594465      0.07573481    100.0
 <Dec11-2023> <10:51:46>      6      0.32525136      0.01965361    100.0
 <Dec11-2023> <10:51:50>      7      0.23305808      0.01743063     16.6
 <Dec11-2023> <10:51:55>      8      0.07685177      0.00829458      7.4
 <Dec11-2023> <10:51:59>      9      0.02392303      0.00197627      1.0
 <Dec11-2023> <10:52:04>     10      0.01135423      0.00066628      0.0
 <Dec11-2023> <10:52:08>     11      0.00260321      0.00014779      0.0
 <Dec11-2023> <10:52:13>     12      0.00117847      0.00010226      0.0
 <Dec11-2023> <10:52:17>     13      0.00050061      0.00002814      0.0
 <Dec11-2023> <10:52:21>     14      0.00031218      0.00001615      0.0
 <Dec11-2023> <10:52:26>     15      0.00011474      0.00000694      0.0
 <Dec11-2023> <10:52:30>     16      0.00003725      0.00000313      0.0
 <Dec11-2023> <10:52:35>     17      0.00002445      0.00000151      0.0
 <Dec11-2023> <10:52:39>     18      0.00002437      0.00000189      0.0
 <Dec11-2023> <10:52:43>     19      0.00000999      0.00000073      0.0
 <Dec11-2023> <10:52:45>  SCF converged
 <Dec11-2023> <10:52:48>     20      0.00000359      0.00000028      0.0
 <Dec11-2023> <10:52:51>  >>>> TOTEN
 <Dec11-2023> <10:53:04>  QTAIM: determining topology...
 <Dec11-2023> <10:53:16>  >>>> POPAN
 <Dec11-2023> <10:53:16>  >>>> DEBYE
 <Dec11-2023> <10:53:16>  >>>> AMETS
 <Dec11-2023> <10:53:17>  >>>> POPUL
 <Dec11-2023> <10:53:17>   Bond Energy          -8.33815942 a.u.
 <Dec11-2023> <10:53:17>   Bond Energy        -226.89286227 eV
 <Dec11-2023> <10:53:17>   Bond Energy       -5232.27       kcal/mol
 <Dec11-2023> <10:53:17>  >>>> ENHESS
 <Dec11-2023> <10:53:35>  === NUCLEUS:     1
 <Dec11-2023> <10:58:10>  === NUCLEUS:     2
 <Dec11-2023> <11:02:40>  === NUCLEUS:     3
 <Dec11-2023> <11:07:04>  === NUCLEUS:     4
 <Dec11-2023> <11:11:27>  === NUCLEUS:     5
 <Dec11-2023> <11:15:51>  === NUCLEUS:     6
 <Dec11-2023> <11:19:51>  === NUCLEUS:     7
 <Dec11-2023> <11:23:56>  === NUCLEUS:     8
 <Dec11-2023> <11:28:01>  === NUCLEUS:     9
 <Dec11-2023> <11:32:06>  === NUCLEUS:    10
 <Dec11-2023> <11:35:59>  === NUCLEUS:    11
 <Dec11-2023> <11:39:58>  === NUCLEUS:    12
 <Dec11-2023> <11:44:09>  === NUCLEUS:    13
 <Dec11-2023> <11:48:08>  === NUCLEUS:    14
 <Dec11-2023> <11:52:07>  === NUCLEUS:    15
 <Dec11-2023> <11:55:59>  === NUCLEUS:    16
 <Dec11-2023> <12:00:04>  === NUCLEUS:    17
 <Dec11-2023> <12:04:03>  === NUCLEUS:    18
 <Dec11-2023> <12:08:01>  === NUCLEUS:    19
 <Dec11-2023> <12:12:00>  === NUCLEUS:    20
 <Dec11-2023> <12:16:04>  === NUCLEUS:    21
 <Dec11-2023> <12:19:56>  === NUCLEUS:    22
 <Dec11-2023> <12:23:54>  === NUCLEUS:    23
 <Dec11-2023> <12:27:52>  === NUCLEUS:    24
 <Dec11-2023> <12:31:55>  >>>> CALC_HESS_PMAT
 <Dec11-2023> <12:32:42>  >>>> CALC_HESS_WMAT
 <Dec11-2023> <12:32:50>  Symmetry  : NOSYM
 <Dec11-2023> <12:32:50>  >>>> FRAGM
 <Dec11-2023> <12:32:50>  Geometry symmetry displacement    1 out of    4
  Coordinates in Geometry Cycle 2
    Atom         X           Y           Z   (Angstrom)
    1.W        13.700561   11.260130    2.634549
    2.W        14.066167    8.033188    4.115645
    3.W        11.921809   10.278560    5.408067
    4.W         9.522628   11.369769    3.298297
    5.W        11.379420    8.751841    2.234514
    6.O        13.206779   11.673554    0.959598
    7.O        13.374673    9.090510    2.275389
    8.O        13.861017    6.414661    3.344634
    9.O        13.764612   10.199493    4.601252
   10.O        14.269924    7.601113    5.855923
   11.O        11.623308   10.796428    3.213974
   12.O        11.988028    8.384516    4.296235
   13.O        10.062144   10.419173    5.183602
   14.O         7.778738   11.101608    3.722974
   15.O         9.423915   11.797477    1.552800
   16.O         9.649506    9.252127    2.755314
   17.O        12.254017   11.911524    6.071551
   18.O        11.983255    9.314980    6.921434
   19.O        11.152755    6.981331    2.037328
   20.O        15.773057    8.415267    3.657799
   21.O        11.326498    9.257251    0.513308
   22.O        15.481041   11.080375    2.430070
   23.O        13.612399   12.857507    3.448386
   24.O         9.843867   12.986847    4.018463
 <Dec11-2023> <12:32:50>  >>>> CORORT
 <Dec11-2023> <12:32:51>  >>>> CLSMAT
 <Dec11-2023> <12:32:51>  >>>> ORTHON
 <Dec11-2023> <12:32:51>  >>>> GENPT
 <Dec11-2023> <12:32:51>  Block Length= 128
 <Dec11-2023> <12:32:51>  >>>> PTBAS
 <Dec11-2023> <12:32:54>  combining surface points...
 <Dec11-2023> <12:32:54>  combining surface points...
 <Dec11-2023> <12:32:54>  combining surface points...
 <Dec11-2023> <12:32:54>  >>>> CYCLE
 <Dec11-2023> <12:33:00>              |Error|         MaxErr       Wt(A-DIIS)
 <Dec11-2023> <12:33:00>      1      0.21712179      0.01081758
 <Dec11-2023> <12:33:05>      2      0.76007264      0.02955087    100.0
 <Dec11-2023> <12:33:09>      3      0.24971390      0.01148315    100.0
 <Dec11-2023> <12:33:14>      4      0.33918741      0.01413022    100.0
 <Dec11-2023> <12:33:18>      5      1.14589638      0.05900560    100.0
 <Dec11-2023> <12:33:23>      6      0.32523924      0.02065614    100.0
 <Dec11-2023> <12:33:28>      7      0.23307351      0.01798593     17.2
 <Dec11-2023> <12:33:32>      8      0.07828939      0.00802089      7.1
 <Dec11-2023> <12:33:36>      9      0.02311804      0.00144639      0.5
 <Dec11-2023> <12:33:41>     10      0.01119349      0.00051267      0.0
 <Dec11-2023> <12:33:45>     11      0.00261860      0.00014829      0.0
 <Dec11-2023> <12:33:50>     12      0.00118257      0.00010392      0.0
 <Dec11-2023> <12:33:54>     13      0.00050196      0.00002916      0.0
 <Dec11-2023> <12:33:58>     14      0.00030589      0.00001341      0.0
 <Dec11-2023> <12:34:03>     15      0.00011489      0.00000539      0.0
 <Dec11-2023> <12:34:07>     16      0.00003765      0.00000245      0.0
 <Dec11-2023> <12:34:11>     17      0.00002373      0.00000155      0.0
 <Dec11-2023> <12:34:16>     18      0.00002335      0.00000145      0.0
 <Dec11-2023> <12:34:20>     19      0.00001030      0.00000068      0.0
 <Dec11-2023> <12:34:24>     20      0.00000335      0.00000028      0.0
 <Dec11-2023> <12:34:26>  SCF converged
 <Dec11-2023> <12:34:29>     21      0.00000178      0.00000012      0.0
 <Dec11-2023> <12:34:31>  >>>> TOTEN
 <Dec11-2023> <12:34:32>  >>>> POPAN
 <Dec11-2023> <12:34:32>  >>>> DEBYE
 <Dec11-2023> <12:34:32>  >>>> ENGRAD
 <Dec11-2023> <12:34:43>  Geometry symmetry displacement    2 out of    4
  Coordinates in Geometry Cycle 2
    Atom         X           Y           Z   (Angstrom)
    1.W        13.700533   11.260049    2.634377
    2.W        14.066184    8.033230    4.115721
    3.W        11.921821   10.278638    5.408082
    4.W         9.522633   11.369778    3.298310
    5.W        11.379413    8.751795    2.234588
    6.O        13.205986   11.674370    0.959895
    7.O        13.374717    9.090743    2.275408
    8.O        13.862195    6.415533    3.342665
    9.O        13.764589   10.199355    4.601456
   10.O        14.268412    7.599216    5.855693
   11.O        11.623318   10.796462    3.214029
   12.O        11.988006    8.384467    4.296153
   13.O        10.062115   10.419006    5.183559
   14.O         7.778748   11.101633    3.723017
   15.O         9.423882   11.797496    1.552817
   16.O         9.649495    9.252194    2.755160
   17.O        12.253751   11.911704    6.071397
   18.O        11.983497    9.315208    6.921532
   19.O        11.152576    6.981280    2.037605
   20.O        15.773427    8.416367    3.660091
   21.O        11.326727    9.256997    0.513293
   22.O        15.480819   11.079709    2.428736
   23.O        13.613374   12.857121    3.448969
   24.O         9.843907   12.986848    4.018478
 <Dec11-2023> <12:34:44>  >>>> CORORT
 <Dec11-2023> <12:34:44>  >>>> CLSMAT
 <Dec11-2023> <12:34:44>  >>>> ORTHON
 <Dec11-2023> <12:34:44>  >>>> GENPT
 <Dec11-2023> <12:34:44>  Block Length= 128
 <Dec11-2023> <12:34:44>  >>>> PTBAS
 <Dec11-2023> <12:34:48>  combining surface points...
 <Dec11-2023> <12:34:48>  combining surface points...
 <Dec11-2023> <12:34:48>  combining surface points...
 <Dec11-2023> <12:34:48>  >>>> CYCLE
 <Dec11-2023> <12:34:53>              |Error|         MaxErr       Wt(A-DIIS)
 <Dec11-2023> <12:34:53>      1      0.22907835      0.01817454
 <Dec11-2023> <12:34:58>      2      0.76007658      0.02955496    100.0
 <Dec11-2023> <12:35:02>      3      0.24971341      0.01148381    100.0
 <Dec11-2023> <12:35:07>      4      0.33909205      0.01412553    100.0
 <Dec11-2023> <12:35:11>      5      1.14642236      0.05903419    100.0
 <Dec11-2023> <12:35:16>      6      0.32543761      0.02066242    100.0
 <Dec11-2023> <12:35:20>      7      0.23274988      0.01796253     17.1
 <Dec11-2023> <12:35:25>      8      0.07816958      0.00800949      7.1
 <Dec11-2023> <12:35:30>      9      0.02310615      0.00144550      0.5
 <Dec11-2023> <12:35:34>     10      0.01119663      0.00051300      0.0
 <Dec11-2023> <12:35:38>     11      0.00261709      0.00014836      0.0
 <Dec11-2023> <12:35:43>     12      0.00118243      0.00010389      0.0
 <Dec11-2023> <12:35:47>     13      0.00050195      0.00002914      0.0
 <Dec11-2023> <12:35:51>     14      0.00030591      0.00001340      0.0
 <Dec11-2023> <12:35:56>     15      0.00011491      0.00000539      0.0
 <Dec11-2023> <12:36:00>     16      0.00003766      0.00000245      0.0
 <Dec11-2023> <12:36:05>     17      0.00002374      0.00000155      0.0
 <Dec11-2023> <12:36:09>     18      0.00002344      0.00000145      0.0
 <Dec11-2023> <12:36:13>     19      0.00001027      0.00000068      0.0
 <Dec11-2023> <12:36:17>     20      0.00000334      0.00000028      0.0
 <Dec11-2023> <12:36:19>  SCF converged
 <Dec11-2023> <12:36:22>     21      0.00000178      0.00000012      0.0
 <Dec11-2023> <12:36:24>  >>>> TOTEN
 <Dec11-2023> <12:36:25>  >>>> POPAN
 <Dec11-2023> <12:36:25>  >>>> DEBYE
 <Dec11-2023> <12:36:25>  >>>> ENGRAD
 <Dec11-2023> <12:36:36>  Old frequency:    -79.12203, new:     41.11920
 <Dec11-2023> <12:36:36>  Geometry symmetry displacement    3 out of    4
  Coordinates in Geometry Cycle 2
    Atom         X           Y           Z   (Angstrom)
    1.W        13.700536   11.260071    2.634438
    2.W        14.066174    8.033184    4.115601
    3.W        11.921847   10.278616    5.408103
    4.W         9.522651   11.369805    3.298329
    5.W        11.379378    8.751814    2.234605
    6.O        13.207171   11.673157    0.959288
    7.O        13.374725    9.090634    2.275436
    8.O        13.861895    6.415294    3.343044
    9.O        13.764573   10.199460    4.601380
   10.O        14.268804    7.599639    5.855652
   11.O        11.623283   10.796375    3.213900
   12.O        11.988029    8.384501    4.296232
   13.O        10.062158   10.419063    5.183583
   14.O         7.778729   11.101575    3.722835
   15.O         9.424108   11.797705    1.552868
   16.O         9.649454    9.252189    2.755208
   17.O        12.253915   11.911674    6.071406
   18.O        11.983502    9.315213    6.921565
   19.O        11.152554    6.981282    2.037709
   20.O        15.773314    8.416039    3.659349
   21.O        11.326583    9.256951    0.513306
   22.O        15.481105   11.080592    2.430479
   23.O        13.611840   12.857554    3.448025
   24.O         9.843780   12.986808    4.018706
 <Dec11-2023> <12:36:36>  >>>> CORORT
 <Dec11-2023> <12:36:37>  >>>> CLSMAT
 <Dec11-2023> <12:36:37>  >>>> ORTHON
 <Dec11-2023> <12:36:37>  >>>> GENPT
 <Dec11-2023> <12:36:37>  Block Length= 128
 <Dec11-2023> <12:36:37>  >>>> PTBAS
 <Dec11-2023> <12:36:40>  combining surface points...
 <Dec11-2023> <12:36:40>  combining surface points...
 <Dec11-2023> <12:36:40>  combining surface points...
 <Dec11-2023> <12:36:41>  >>>> CYCLE
 <Dec11-2023> <12:36:46>              |Error|         MaxErr       Wt(A-DIIS)
 <Dec11-2023> <12:36:46>      1      0.22132324      0.01425416
 <Dec11-2023> <12:36:51>      2      0.76006557      0.02955071    100.0
 <Dec11-2023> <12:36:55>      3      0.24971430      0.01148353    100.0
 <Dec11-2023> <12:37:00>      4      0.33909087      0.01412620    100.0
 <Dec11-2023> <12:37:04>      5      1.14642187      0.05903562    100.0
 <Dec11-2023> <12:37:09>      6      0.32542422      0.02066142    100.0
 <Dec11-2023> <12:37:13>      7      0.23277445      0.01796449     17.1
 <Dec11-2023> <12:37:18>      8      0.07817060      0.00800968      7.1
 <Dec11-2023> <12:37:22>      9      0.02310788      0.00144566      0.5
 <Dec11-2023> <12:37:27>     10      0.01119733      0.00051306      0.0
 <Dec11-2023> <12:37:31>     11      0.00261700      0.00014827      0.0
 <Dec11-2023> <12:37:36>     12      0.00118243      0.00010388      0.0
 <Dec11-2023> <12:37:40>     13      0.00050197      0.00002917      0.0
 <Dec11-2023> <12:37:44>     14      0.00030590      0.00001342      0.0
 <Dec11-2023> <12:37:49>     15      0.00011492      0.00000539      0.0
 <Dec11-2023> <12:37:53>     16      0.00003766      0.00000245      0.0
 <Dec11-2023> <12:37:57>     17      0.00002374      0.00000155      0.0
 <Dec11-2023> <12:38:02>     18      0.00002344      0.00000145      0.0
 <Dec11-2023> <12:38:06>     19      0.00001027      0.00000068      0.0
 <Dec11-2023> <12:38:10>     20      0.00000334      0.00000028      0.0
 <Dec11-2023> <12:38:12>  SCF converged
 <Dec11-2023> <12:38:15>     21      0.00000178      0.00000012      0.0
 <Dec11-2023> <12:38:17>  >>>> TOTEN
 <Dec11-2023> <12:38:18>  >>>> POPAN
 <Dec11-2023> <12:38:18>  >>>> DEBYE
 <Dec11-2023> <12:38:18>  >>>> ENGRAD
 <Dec11-2023> <12:38:29>  Geometry symmetry displacement    4 out of    4
  Coordinates in Geometry Cycle 2
    Atom         X           Y           Z   (Angstrom)
    1.W        13.700558   11.260108    2.634488
    2.W        14.066177    8.033234    4.115765
    3.W        11.921784   10.278582    5.408045
    4.W         9.522610   11.369742    3.298278
    5.W        11.379455    8.751821    2.234497
    6.O        13.205594   11.674766    0.960205
    7.O        13.374664    9.090619    2.275361
    8.O        13.861318    6.414899    3.344255
    9.O        13.764628   10.199388    4.601328
   10.O        14.269533    7.600690    5.855964
   11.O        11.623342   10.796515    3.214103
   12.O        11.988005    8.384481    4.296155
   13.O        10.062100   10.419116    5.183578
   14.O         7.778756   11.101666    3.723156
   15.O         9.423689   11.797267    1.552749
   16.O         9.649548    9.252132    2.755266
   17.O        12.253854   11.911554    6.071542
   18.O        11.983250    9.314975    6.921401
   19.O        11.152777    6.981328    2.037224
   20.O        15.773170    8.415595    3.658541
   21.O        11.326642    9.257297    0.513295
   22.O        15.480755   11.079492    2.428328
   23.O        13.613933   12.857074    3.449330
   24.O         9.843994   12.986888    4.018235
 <Dec11-2023> <12:38:29>  >>>> CORORT
 <Dec11-2023> <12:38:30>  >>>> CLSMAT
 <Dec11-2023> <12:38:30>  >>>> ORTHON
 <Dec11-2023> <12:38:30>  >>>> GENPT
 <Dec11-2023> <12:38:30>  Block Length= 128
 <Dec11-2023> <12:38:30>  >>>> PTBAS
 <Dec11-2023> <12:38:33>  combining surface points...
 <Dec11-2023> <12:38:33>  combining surface points...
 <Dec11-2023> <12:38:33>  combining surface points...
 <Dec11-2023> <12:38:33>  >>>> CYCLE
 <Dec11-2023> <12:38:39>              |Error|         MaxErr       Wt(A-DIIS)
 <Dec11-2023> <12:38:39>      1      0.22903156      0.01864180
 <Dec11-2023> <12:38:44>      2      0.76007384      0.02955219    100.0
 <Dec11-2023> <12:38:48>      3      0.24971029      0.01148270    100.0
 <Dec11-2023> <12:38:53>      4      0.33930753      0.01413497    100.0
 <Dec11-2023> <12:38:57>      5      1.14522717      0.05896486    100.0
 <Dec11-2023> <12:39:02>      6      0.32502018      0.02065063    100.0
 <Dec11-2023> <12:39:06>      7      0.23340729      0.01800949     17.2
 <Dec11-2023> <12:39:11>      8      0.07843061      0.00803360      7.1
 <Dec11-2023> <12:39:15>      9      0.02312687      0.00144683      0.5
 <Dec11-2023> <12:39:20>     10      0.01118774      0.00051224      0.0
 <Dec11-2023> <12:39:24>     11      0.00262055      0.00014836      0.0
 <Dec11-2023> <12:39:29>     12      0.00118271      0.00010397      0.0
 <Dec11-2023> <12:39:33>     13      0.00050192      0.00002916      0.0
 <Dec11-2023> <12:39:37>     14      0.00030586      0.00001338      0.0
 <Dec11-2023> <12:39:42>     15      0.00011484      0.00000538      0.0
 <Dec11-2023> <12:39:46>     16      0.00003764      0.00000245      0.0
 <Dec11-2023> <12:39:50>     17      0.00002372      0.00000155      0.0
 <Dec11-2023> <12:39:55>     18      0.00002324      0.00000144      0.0
 <Dec11-2023> <12:39:59>     19      0.00001034      0.00000069      0.0
 <Dec11-2023> <12:40:03>     20      0.00000336      0.00000028      0.0
 <Dec11-2023> <12:40:05>  SCF converged
 <Dec11-2023> <12:40:08>     21      0.00000178      0.00000012      0.0
 <Dec11-2023> <12:40:09>  >>>> TOTEN
 <Dec11-2023> <12:40:11>  >>>> POPAN
 <Dec11-2023> <12:40:11>  >>>> DEBYE
 <Dec11-2023> <12:40:11>  >>>> ENGRAD
 <Dec11-2023> <12:40:22>  Old frequency:    -33.05765, new:     68.83648
 <Dec11-2023> <12:40:22>  NOTE: Some frequencies have been re-calculated by numerical differentiation
 <Dec11-2023> <12:40:22>        Check the text output file for new values!
 <Dec11-2023> <12:40:22>  NORMAL TERMINATION
 <Dec11-2023> <12:40:22>  END
