
 *******************************************************************************
 *                                                                             *
 *  -------------------------------------                                      *
 *   Amsterdam Density Functional  (ADF)         2019                          *
 *  -------------------------------------                                      *
 *                                               r79301 2019-11-09             *
 *                                                                             *
 *                                                                             *
 *                            =====================                            *
 *                            |                   |                            *
 *                            |     D I R A C     |                            *
 *                            |                   |                            *
 *                            =====================                            *
 *                                                                             *
 *                                                                             *
 *   Online information and documentation:  https://www.scm.com/support/       *
 *   E-mail:  support@scm.com   info@scm.com                                   *
 *                                                                             *
 *   Scientific publications using ADF results must be properly referenced     *
 *   See the User Manuals (or the web site) for recommended citations          *
 *   The terms and conditions of the End User License Agreement apply to       *
 *   the use of ADF, https://www.scm.com/license-terms/                        *
 *                                                                             *
 **********************  x86_64_linux_intel / intelmpi  ************************
 
 
 
  
 DIRAC 2019  RunTime: Oct13-2020 10:11:38  Nodes: 1  Procs: 1

 Temporary files are created in /scratch/kid_0.329682686 (0x58465342)

1
 OXYGEN ATOM 1s CORE RELATIVISTIC, Point Nuc, A and c from li
 N J RN H ZN XION ANUC CLIGHT
 5000    4100.00000000197.36710137  8.00000000  0.00000000   15.994914  0.1370360E+03
  PH   PHI     EPS        DEL        DELRVR
  0.30  0.30     2500.00  0.00001000  0.00001000
 IDIRC  NC1  NDEBU NPRIN  IPUN IRCOR IWCOR
   1   300     0     0     0     0     1
   XALPHA      XLATTER      RNUC
  0.70000000  0.00000000  0.00000000 Point Charge
   XN   XL   XJ      XE          XZ      XDELL
  1.0  0.0  0.5      -5.000       2.000     0.00000
  2.0  0.0  0.5      -1.000       2.000     0.00000
  2.0  1.0  0.5      -1.000       2.000     0.00000
  2.0  1.0  1.5      -1.000       2.000     0.00000
 ICORP=  0  NPCL=  0  DEMP=0.00  PEPS=0.000000
 R(1)=  0.1000000E-08 D=  0.1005080E+01 RNUC=  0.0000000E+00
 converged at cycle   28  DENSITY AVERAGING    0.2400
  MAXIMUM ERROR IN R.V(R) IS   0.81125670E-05
 Q,EY,EV,EZ,ESUM,ETOT,RHO  0.800000E+01 -0.101247E+02 -0.114961E+03 -0.177573E+03 -0.405053E+02 -0.743427E+02  0.414766E-14


 DIRAC CALCULATION
1                    OXYGEN ATOM 1s CORE RELATIVISTIC, Point Nuc, A and c from libtc


 EXCHANGE COEFFICIENT=  0.7000000           TAIL CORRECTION=  0.           NUCLEAR RADIUS=  0.000E+00
0                       ORBITAL    N    L    J     ELECTRONS     EIGENVALUE                DELTA OF EIGENV.

                          1S1/2  1.0  0.0  0.5     2.000       -0.1880014E+02                 0.7264359E-06
                          2S1/2  2.0  0.0  0.5     2.000       -0.8412236E+00                 0.5932752E-05
                          2P1/2  2.0  1.0  0.5     2.000       -0.3063203E+00                 0.5998471E-05
                          2P3/2  2.0  1.0  1.5     2.000       -0.3049609E+00                 0.5986971E-05


                                        NUCLEAR CHARGE=    8.000000
                            INTEGRAL OF CHARGE DENSITY=    8.000000
                           SUM OF THE ORBITAL ENERGIES=    -40.5053
                                          TOTAL ENERGY=    -74.3427
                                        KINETIC ENERGY=     74.4552
                             NUCLEAR ATTRACTION ENERGY=   -177.5730
                             ELECTRON REPULSION ENERGY=     36.3686
                                       EXCHANGE ENERGY=     -7.5935

 *******************************************************************************

                             D I R A C   E X I T
 NORMAL TERMINATION



 =================
 Timing Statistics
 =================
  
 Total Used :                     CPU=        0.19      System=        0.01     Elapsed=        0.25

 Calls  Section                     ( Mean, Percentage )
 ---------------------------------------------------------------------------------------------------
     2  ><      ................      0.00    0.00             0.00    0.00             0.00    0.00
     1  EXIT PROCEDURE .........      0.19  100.00             0.01  100.00             0.25  100.00


 Currently Open Files (EXIT00)
 ====================

 Unit    Access Format  Status   Type       Ident (file)
 -------------------------------------------------------
   3      SEQ    FORM   TRANSP  NORMAL      LOGFILE
                                          ( logfile )
 
Create O   file=TZP-O.1s
XC
  GGA PBE
End
relativistic ZORA
Corepotentials t12.rel
End

 *******************************************************************************
 *                                                                             *
 *  -------------------------------------                                      *
 *   Amsterdam Density Functional  (ADF)         2019                          *
 *  -------------------------------------                                      *
 *                                               r79301 2019-11-09             *
 *                                                                             *
 *                                                                             *
 *                              =================                              *
 *                              |               |                              *
 *                              |     A D F     |                              *
 *                              |               |                              *
 *                              =================                              *
 *                                                                             *
 *                                                                             *
 *   Online information and documentation:  https://www.scm.com/support/       *
 *   E-mail:  support@scm.com   info@scm.com                                   *
 *                                                                             *
 *   Scientific publications using ADF results must be properly referenced     *
 *   See the User Manuals (or the web site) for recommended citations          *
 *   The terms and conditions of the End User License Agreement apply to       *
 *   the use of ADF, https://www.scm.com/license-terms/                        *
 *                                                                             *
 **********************  x86_64_linux_intel / intelmpi  ************************
 
 
 
  
 ADF 2019  RunTime: Oct13-2020 10:11:39  Nodes: 1  Procs: 1

 Temporary files are created in /scratch/kid_0.40336531 (0x58465342)

 Oxygen (TZP, 1s frozen)



 ===========================
 A T T A C H E D   F I L E S
 ===========================
  
 CREATE - Data File:    TZP-O.1s
                        Oxygen (TZP, 1s frozen)
 Core Potentials:
         file : t12.rel



 ===============================
 M O D E L   P A R A M E T E R S
 ===============================
  
 DENSITY FUNCTIONAL POTENTIAL (scf)
    LDA:                               PW92                                    == Not Default ==
    Gradient Corrections:              PBEc PBEx                               == Not Default ==

 SPIN  (restricted / unrestr.)
    Molecule:                          Restricted                               

 OTHER ASPECTS
    Relativistic Corrections:          scalar (ZORA,MAPA)                      == Not Default ==

    Nuclear Charge Density Model:      Point Charge Nuclei                      
    Core Treatment:                    Frozen Orbital(s)                        

    Hyperfine or Zeeman Interaction:   ---                                      



 =====================================
 S Y M M E T R Y ,   E L E C T R O N S
 =====================================
  
 Symmetry: ATOM

 Irreducible Representations, including subspecies
 -------------------------------------------------
 S
 P:x  P:y  P:z
 D:z2  D:x2-y2  D:xy  D:xz  D:yz
 F:z3  F:z  F:xyz  F:z2x  F:z2y  F:x  F:y


 Configuration of Valence Electrons
 ==================================

          Occupation Numbers
          -------------------------------------------------
 S        2
 P        4
 D        0
 F        0
          -------------------------------------------------

 Total:   6

 Net Charge: 0 (Nuclei minus Electrons)

 Preset values for MO occupations will be applied through SCF cycle no. 1000000
 Thereafter, the program will assign electrons to MOs that are spatially
 similar to the occupied MOs in a "reference" cycle ("KeepOrbitals").
 The reference cycle is always the PREVIOUS cycle: it will evolve with
 the SCF procedure.



 ================================
 (Slater-type)  F U N C T I O N S  ***  (Basis and Fit)  ***
 ================================
  

 Atom Type    1  (O)
 ==============

 Valence Basis Sets:   8
 -----------------------
   1 S    7.360000
   2 S    1.720000
   2 S    2.880000
   2 S    7.580000
   2 P    1.120000
   2 P    2.080000
   2 P    4.080000
   3 D    2.000000

 Frozen Core Shells
 ------------------
    S:  1


 BAS: List of all Elementary Cartesian Basis Functions
 =====================================================

 The numbering in the list below (to the right of the function characteristics) is referred
 to in print-outs of MO eigenvectors and Mulliken populations in the BAS representation
 (as contrasted to the SFO representation).

 Notes:
 1. The functions are characterized by a polynomial prefactor (powers of x,y,z and r) and
    an exponential decay factor alpha.
 2. Since the basis sets are specific for an atom TYPE, the individual functions occur on
    all atoms of that type.
 3. The word 'Core' in the left margin signals that it is a Core Function (CF) : not a
    degree of freedom in the valence set, but only used to ensure orthogonalization of
    the other valence basis functions on the frozen Core Orbitals.


 (power of) X  Y  Z  R     Alpha  on Atom
            ==========     =====     ==========

 O                                    1
                                  ---------------------------------------------------------------------------
    Core    0  0  0  0     7.360      1
            0  0  0  1     1.720      2
            0  0  0  1     2.880      3
            0  0  0  1     7.580      4
            1  0  0  0     1.120      5
            0  1  0  0     1.120      6
            0  0  1  0     1.120      7
            1  0  0  0     2.080      8
            0  1  0  0     2.080      9
            0  0  1  0     2.080     10
            1  0  0  0     4.080     11
            0  1  0  0     4.080     12
            0  0  1  0     4.080     13
            2  0  0  0     2.000     14
            1  1  0  0     2.000     15
            1  0  1  0     2.000     16
            0  2  0  0     2.000     17
            0  1  1  0     2.000     18
            0  0  2  0     2.000     19

 Total number of charge fitting functions (nprimf)        82
 Total number of Cartesian basis functions (naos)         19
 Total number of Cartesian core functions  (ncos)          1



 BAS: List of all Elementary Cartesian Basis Functions
 =====================================================

 The numbering in the list below (to the right of the function characteristics) is referred
 to in print-outs of MO eigenvectors and Mulliken populations in the BAS representation
 (as contrasted to the SFO representation).

 Notes:
 1. The functions are characterized by a polynomial prefactor (powers of x,y,z and r) and
    an exponential decay factor alpha.
 2. Since the basis sets are specific for an atom TYPE, the individual functions occur on
    all atoms of that type.
 3. The word 'Core' in the left margin signals that it is a Core Function (CF) : not a
    degree of freedom in the valence set, but only used to ensure orthogonalization of
    the other valence basis functions on the frozen Core Orbitals.


 (power of) X  Y  Z  R     Alpha  on Atom
            ==========     =====     ==========

 O                                    1
                                  ---------------------------------------------------------------------------
    Core    0  0  0  0     7.360      1
            0  0  0  1     1.720      2
            0  0  0  1     2.880      3
            0  0  0  1     7.580      4
            1  0  0  0     1.120      5
            0  1  0  0     1.120      6
            0  0  1  0     1.120      7
            1  0  0  0     2.080      8
            0  1  0  0     2.080      9
            0  0  1  0     2.080     10
            1  0  0  0     4.080     11
            0  1  0  0     4.080     12
            0  0  1  0     4.080     13
            2  0  0  0     2.000     14
            1  1  0  0     2.000     15
            1  0  1  0     2.000     16
            0  2  0  0     2.000     17
            0  1  1  0     2.000     18
            0  0  2  0     2.000     19
1
 ***************************************************************************************************



                                              ***********************
                                              *  T E C H N I C A L  *
                                              ***********************
  



 =============================================================
 P A R A L L E L I Z A T I O N  and  V E C T O R I Z A T I O N
 =============================================================
  
 Nr of parallel processes:                                1
 Maximum vector length in NumInt loops:                 128



 =====================
 S C F   U P D A T E S
 =====================
  
 Max. nr. of cycles:                               300
 Convergence criterion:                              0.0000000100
   secondary criterion:                              0.0000000100

 Mix parameter (when DIIS does not apply):           0.2000000000
 Special mix parameter for the first cycle:          1.0000000000
 Mixed ADIIS+SDIIS will be used                  
    Max number of expansion vectors:                10
    Pure ADIIS when Max([F,P]) is above              0.1000000000
    Pure SDIIS when Max([F,P]) is below              0.0010000000
 Automatic ElectronSmearing (in case of problematic SCF convergence) disabled



 =================
 P R E C I S I O N  ***  (General: NumInt, NeglectFunctionTails, ...)  ***
 =================
  

 NumInt:           Target precision:                12.0000000000
 -------           Initial precision:               10.0000000000
                   Min. precision (optimization):   10.0000000000

 Neglect Functions:          Basis functions:        0.1000000000E-13
 ------------------          Fit functions:          0.1000000000E-13



 ===========================
 L I N E A R   S C A L I N G
 ===========================
  

 Cut-off radii density fit:                        0.1000000000E-97
 Overlap cut-off criterion AO matrix elements:     0.1000000000E-97
 Cut-offs for Coulomb potential and fitted density:0.1000000000E-97
 Cut-off criterion for Coulomb multipole terms:    0.1000000000E-97
 Progressive Convergence parameter:                 0.000000000    
1
 ***************************************************************************************************



                                            ***************************
                                            *  C O M P U T A T I O N  *
                                            ***************************
  

 Number of elements of the density matrix on this node (used, total):       190       190



 ===========================================
 Numerical Integration : Fuzzy Cells (Becke)
 ===========================================
  
 Becke grid quality: VERYGOOD       
  
 Lebedev angular grid order:             min:  13 max:  41
 Nr. of radial points:                   min:  68 max:  68

 Total nr. of points:         68
 Nr. of blocks:                1
 Block length:                68
 Nr. of dummy points:          0


 Test of Precision of the Numerical Integration Grid
 ===================================================

 Integral of the Total Core Density:                   1.99999999865610
 Relative Error:                                      -6.720E-10



 ========================
 Density Fitting (zlmFit)
 ========================
  
 ZlmFit Fit Quality: VERYGOOD       
  
 Max L-expansion:                        min:   0 max:   0
 Nr. of radial interpolation points:     min: 140 max: 140



 =====
 S C F  ***  ScaSCF  ***
 =====
  

 CYCLE    1
 SCF Error: norm([F,P])=      0.000000000000, max([F,P])=      0.000000000000
 orbitals (Q,E):
 ---------------
 S :1...3            ( 2.00    -5.3654)  ( 0.00    -2.2073)  ( 0.00    23.6692)
 P :1...3            ( 4.00    -5.0045)  ( 0.00    -2.0150)  ( 0.00    -0.3846)
 D :1...1            ( 0.00    -2.0410)

 CYCLE    2
 SCF Error: norm([F,P])=      4.562993374873, max([F,P])=      2.528971113812
 orbitals (Q,E):
 ---------------
 S :1...2            ( 2.00    -0.1548)  ( 0.00     1.6948)
 P :1...2            ( 4.00     0.1773)  ( 0.00     0.9552)
 D :1...1            ( 0.00     1.4649)

 CYCLE    3
  SDIIS (wt  0.000):  0.3378  0.6622
 A-DIIS (wt  1.000):  0.4814  0.5186
  DIIS coefficients:  0.4814  0.5186
 SCF Error: norm([F,P])=      2.723155250500, max([F,P])=      1.798667049295
 orbitals (Q,E):
 ---------------
 S :1...2            ( 2.00    -1.1093)  ( 0.00     0.7549)
 P :1...2            ( 4.00    -0.5518)  ( 0.00     0.2590)
 D :1...1            ( 0.00     0.8910)

 CYCLE    4
  SDIIS (wt  0.000):  0.0919  0.9081
 A-DIIS (wt  1.000):  0.0000  1.0000
  DIIS coefficients:  0.0000  1.0000
 SCF Error: norm([F,P])=      0.289027138405, max([F,P])=      0.130648623511
 orbitals (Q,E):
 ---------------
 S :1...2            ( 2.00    -0.7707)  ( 0.00     0.9912)
 P :1...2            ( 4.00    -0.2284)  ( 0.00     0.4046)
 D :1...1            ( 0.00     1.1288)

 CYCLE    5
  SDIIS (wt  0.000):  0.0260  0.6740  0.3001
 A-DIIS (wt  1.000):  0.0000  0.5764  0.4236
  DIIS coefficients:  0.0000  0.5764  0.4236
 SCF Error: norm([F,P])=      0.416615089426, max([F,P])=      0.232643669786
 orbitals (Q,E):
 ---------------
 S :1...2            ( 2.00    -0.8764)  ( 0.00     0.9107)
 P :1...2            ( 4.00    -0.3280)  ( 0.00     0.3557)
 D :1...1            ( 0.00     1.0703)

 CYCLE    6
  SDIIS (wt  0.942):  0.0005  0.0237 -0.0203  0.9960
 A-DIIS (wt  0.058):  0.0000  0.0000  0.0000  1.0000
  DIIS coefficients:  0.0005  0.0224 -0.0191  0.9962
 SCF Error: norm([F,P])=      0.013723272809, max([F,P])=      0.006719036732
 orbitals (Q,E):
 ---------------
 S :1...2            ( 2.00    -0.8830)  ( 0.00     0.9058)
 P :1...2            ( 4.00    -0.3343)  ( 0.00     0.3521)
 D :1...1            ( 0.00     1.0657)

 CYCLE    7
  SDIIS (wt  1.000): -0.0000  0.0016  0.0023  0.0424  0.9537
  DIIS coefficients: -0.0000  0.0016  0.0023  0.0424  0.9537
 SCF Error: norm([F,P])=      0.001103645928, max([F,P])=      0.000634039171
 orbitals (Q,E):
 ---------------
 S :1...2            ( 2.00    -0.8827)  ( 0.00     0.9060)
 P :1...2            ( 4.00    -0.3340)  ( 0.00     0.3523)
 D :1...1            ( 0.00     1.0659)

 CYCLE    8
  SDIIS (wt  1.000): -0.0000 -0.0001  0.0000 -0.0032  0.0268  0.9765
  DIIS coefficients: -0.0000 -0.0001  0.0000 -0.0032  0.0268  0.9765
 SCF Error: norm([F,P])=      0.000035919806, max([F,P])=      0.000020263970
 orbitals (Q,E):
 ---------------
 S :1...2            ( 2.00    -0.8827)  ( 0.00     0.9060)
 P :1...2            ( 4.00    -0.3340)  ( 0.00     0.3522)
 D :1...1            ( 0.00     1.0659)

 CYCLE    9
  SDIIS (wt  1.000): -0.0000  0.0008  0.0188  0.9804
  DIIS coefficients: -0.0000  0.0008  0.0188  0.9804
 SCF Error: norm([F,P])=      0.000000326379, max([F,P])=      0.000000183921
 orbitals (Q,E):
 ---------------
 S :1...2            ( 2.00    -0.8827)  ( 0.00     0.9060)
 P :1...2            ( 4.00    -0.3340)  ( 0.00     0.3522)
 D :1...1            ( 0.00     1.0659)

 CYCLE   10
  SDIIS (wt  1.000):  0.0000  0.0003  0.9996
  DIIS coefficients:  0.0000  0.0003  0.9996
 SCF Error: norm([F,P])=      0.000000000559, max([F,P])=      0.000000000306
 orbitals (Q,E):
 ---------------
 S :1...2            ( 2.00    -0.8827)  ( 0.00     0.9060)
 P :1...2            ( 4.00    -0.3340)  ( 0.00     0.3522)
 D :1...1            ( 0.00     1.0659)

 SCF CONVERGED

 CYCLE   11
1
 ***************************************************************************************************



                                                *******************
                                                *  R E S U L T S  *
                                                *******************
  
 *** Using FIT density in Focky
  SDIIS (wt  1.000): -0.0000  0.0143  0.9857
  DIIS coefficients: -0.0000  0.0143  0.9857
 SCF Error: norm([F,P])=      0.000000000010, max([F,P])=      0.000000000006

 Scaled ZORA Orbital Energies, per Irrep and Spin:
 =================================================
                        Occup              E (au)              E (eV)       Diff (eV) with prev. cycle
                        -----      --------------------        ------       --------------------------
 S
               1        2.000     -0.88272313143205E+00       -24.020              -9.22E-11
               2        0.000      0.90601345014677E+00        24.654
               3        0.000      0.29578810816938E+02       804.880
 P
               1        4.000     -0.33400585272068E+00        -9.089              -8.88E-11
               2        0.000      0.35224911365995E+00         9.585
               3        0.000      0.38342927625315E+01       104.336
 D
               1        0.000      0.10658965783141E+01        29.005


 Partially Occupied:
               1 P                -0.33400585272068E+00
  
 HOMO :        1 S                -0.88272313143205E+00
 LUMO :        2 P                 0.35224911365995E+00
  


 Orbital Energies, all Irreps
 ========================================

 Irrep        no.  (spin)   Occup              E (au)                E (eV)
 ---------------------------------------------------------------------------
 S             1             2.00       -0.88272313143205E+00       -24.0201
 P             1             4.00       -0.33400585272068E+00        -9.0888
 P             2             0.00        0.35224911365995E+00         9.5852
 S             2             0.00        0.90601345014677E+00        24.6539
 D             1             0.00        0.10658965783141E+01        29.0045
 P             3             0.00        0.38342927625315E+01       104.3364
 S             3             0.00        0.29578810816938E+02       804.8804


 Scaled ZORA Orbital Energies of the Core Orbitals:
 ==================================================

 (Note that the atoms are grouped by atomtype, see the labels, and may hence NOT be in input order)

 AtomType  Orbital  Atom                   E (au)                        E (eV)
 --------  -------  ----           --------------------        ----------------
 O           1S        1          -0.18925919758629E+02                -515.000



 =======================================
 M U L L I K E N   P O P U L A T I O N S
 =======================================
  
 The survey below gives for each atom:
 a) the total charge (Z minus electrons)
 b) the net spin polarization (nr of electrons spin-A minus spin-B)
 c) for each spin the atomic electron valence density (integrated) per L-value.

 Atom              Charge    Spin density          S         P         D         F
 ----              ------    ------------       ------    ------    ------    ------
 1 O               0.0000                       2.0000    4.0000    0.0000    0.0000

 Populations of individual BAS functions
 ----------------------------------------
 1 O            0.0005  0.9226  1.0966 -0.0196  0.3346  0.3346  0.3346  0.7512  0.7512  0.7512
                0.2476  0.2476  0.2476  0.0000  0.0000  0.0000  0.0000  0.0000  0.0000

 Gross Charges per Atom (Z minus electrons)
 ==========================================
             0.0000
 Net Total:  0.00000000



 =======================================================================
 Electrostatic potential at the Nuclei due to electrons and other nuclei
 =======================================================================
  
         Atom                  Potential
         ----                  ---------
     1)   O                  22.20265662
 
 
 ========================
 No memory problems found
 ========================
 
 Maximum number of active allocate calls:         389
 
 *******************************************************************************

                             A D F   E X I T
 NORMAL TERMINATION



 =================
 Timing Statistics
 =================
  
 Total Used :                     CPU=        0.79      System=        0.04     Elapsed=        1.47

 Calls  Section                     ( Mean, Percentage )
 ---------------------------------------------------------------------------------------------------
     3  ><      ................      0.00    0.76             0.00    0.00             0.00    0.52
     1  INIT    ................      0.12   15.88             0.02   37.21             0.66   44.66
     1  GEOMET  ................      0.02    3.18             0.01   18.61             0.05    3.73
     1  INPUTA  ................      0.01    0.76             0.00    0.00             0.01    0.43
     1  MAINSY  ................      0.02    2.29             0.00    9.30             0.06    3.78
     1  SYMFIT  ................      0.00    0.25             0.00    0.00             0.04    2.41
     1  CORORT  ................      0.00    0.25             0.00    0.00             0.01    0.59
     1  SYMORB  ................      0.00    0.25             0.00    0.00             0.00    0.11
     1  CLSMAT  ................      0.01    1.14             0.00    2.33             0.01    0.71
     1  ORTHON  ................      0.01    1.14             0.00    0.00             0.01    0.70
     1  GENPT   ................      0.02    3.18             0.00    0.00             0.03    1.75
     1  PTBAS   ................      0.01    0.89             0.00    2.33             0.01    0.64
    11  FOCKY   ................      0.04   55.40             0.00   18.61             0.04   30.83
    11  FOCKTR  ................      0.00    1.40             0.00    0.00             0.00    0.77
    11  SDIIS   ................      0.00    5.08             0.00    9.30             0.00    3.71
     1  COREPS  ................      0.03    3.94             0.00    0.00             0.03    2.12
     1  POPAN   ................      0.01    1.02             0.00    0.00             0.01    0.66
     1  DEBYE   ................      0.00    0.38             0.00    0.00             0.00    0.23
     1  EXIT PROCEDURE .........      0.02    2.80             0.00    2.33             0.02    1.64


 Currently Open Files (EXIT00)
 ====================

 Unit    Access Format  Status   Type       Ident (file)
 -------------------------------------------------------
   3      SEQ    FORM   TRANSP  NORMAL      LOGFILE
                                          ( logfile )

 ***************************************************************************************************
 (LOGFILE)
 <Oct13-2020> <10:11:38>  DIRAC 2019  RunTime: Oct13-2020 10:11:38  Nodes: 1  Procs: 1
 <Oct13-2020> <10:11:38>  NORMAL TERMINATION
 <Oct13-2020> <10:11:38>  END
 <Oct13-2020> <10:11:39>  ADF 2019  RunTime: Oct13-2020 10:11:39  Nodes: 1  Procs: 1
 <Oct13-2020> <10:11:40>  Oxygen (TZP, 1s frozen)
 <Oct13-2020> <10:11:40>  RunType   : CREATE
 <Oct13-2020> <10:11:40>  Net Charge: 0 (Nuclei minus Electrons)
 <Oct13-2020> <10:11:40>  Symmetry  : ATOM
  Coordinates
    Atom         X           Y           Z   (Angstrom)
    1.O         0.000000    0.000000    0.000000
 <Oct13-2020> <10:11:40>  >>>> CORORT
 <Oct13-2020> <10:11:40>  >>>> CLSMAT
 <Oct13-2020> <10:11:40>  >>>> ORTHON
 <Oct13-2020> <10:11:40>  >>>> GENPT
 <Oct13-2020> <10:11:40>  Block Length=  68
 <Oct13-2020> <10:11:40>  >>>> PTBAS
 <Oct13-2020> <10:11:40>  >>>> CYCLE
 <Oct13-2020> <10:11:40>              |Error|         MaxErr       Wt(A-DIIS)
 <Oct13-2020> <10:11:40>      1      0.00000000      0.00000000
 <Oct13-2020> <10:11:40>      2      4.56299337      2.52897111
 <Oct13-2020> <10:11:40>      3      2.72315525      1.79866705    100.0
 <Oct13-2020> <10:11:40>      4      0.28902714      0.13064862    100.0
 <Oct13-2020> <10:11:40>      5      0.41661509      0.23264367    100.0
 <Oct13-2020> <10:11:40>      6      0.01372327      0.00671904      5.8
 <Oct13-2020> <10:11:40>      7      0.00110365      0.00063404      0.0
 <Oct13-2020> <10:11:40>      8      0.00003592      0.00002026      0.0
 <Oct13-2020> <10:11:40>      9      0.00000033      0.00000018      0.0
 <Oct13-2020> <10:11:40>     10      0.00000000      0.00000000      0.0
 <Oct13-2020> <10:11:41>  SCF converged
 <Oct13-2020> <10:11:41>     11      0.00000000      0.00000000      0.0
 <Oct13-2020> <10:11:41>  >>>> POPAN
 <Oct13-2020> <10:11:41>  >>>> DEBYE
 <Oct13-2020> <10:11:41>  NORMAL TERMINATION
 <Oct13-2020> <10:11:41>  END

 *******************************************************************************
 *                                                                             *
 *  -------------------------------------                                      *
 *   Amsterdam Density Functional  (ADF)         2019                          *
 *  -------------------------------------                                      *
 *                                               r79301 2019-11-09             *
 *                                                                             *
 *                                                                             *
 *                            =====================                            *
 *                            |                   |                            *
 *                            |     D I R A C     |                            *
 *                            |                   |                            *
 *                            =====================                            *
 *                                                                             *
 *                                                                             *
 *   Online information and documentation:  https://www.scm.com/support/       *
 *   E-mail:  support@scm.com   info@scm.com                                   *
 *                                                                             *
 *   Scientific publications using ADF results must be properly referenced     *
 *   See the User Manuals (or the web site) for recommended citations          *
 *   The terms and conditions of the End User License Agreement apply to       *
 *   the use of ADF, https://www.scm.com/license-terms/                        *
 *                                                                             *
 **********************  x86_64_linux_intel / intelmpi  ************************
 
 
 
  
 DIRAC 2019  RunTime: Oct13-2020 10:11:41  Nodes: 1  Procs: 1

 Temporary files are created in /scratch/kid_0.1214364839 (0x58465342)

1
 TUNGSTEN ATOM 4d CORE RELATIVISTIC, Point Nuc, A and c from 
 N J RN H ZN XION ANUC CLIGHT
 5000   22100.00000000197.36710137 74.00000000  0.00000000  183.950932  0.1370360E+03
  PH   PHI     EPS        DEL        DELRVR
  0.30  0.30     2500.00  0.00001000  0.00001000
 IDIRC  NC1  NDEBU NPRIN  IPUN IRCOR IWCOR
   1   300     0     0     0     0    14
   XALPHA      XLATTER      RNUC
  0.70000000  0.00000000  0.00000000 Point Charge
   XN   XL   XJ      XE          XZ      XDELL
  1.0  0.0  0.5   -2600.000       2.000     0.00000
  2.0  0.0  0.5    -425.000       2.000     0.00000
  2.0  1.0  0.5    -425.000       2.000     0.00000
  2.0  1.0  1.5    -425.000       4.000     0.00000
  3.0  0.0  0.5    -100.000       2.000     0.00000
  3.0  1.0  0.5    -100.000       2.000     0.00000
  3.0  1.0  1.5    -100.000       4.000     0.00000
  3.0  2.0  1.5     -80.000       4.000     0.00000
  3.0  2.0  2.5     -80.000       6.000     0.00000
  4.0  0.0  0.5     -22.000       2.000     0.00000
  4.0  1.0  0.5     -20.000       2.000     0.00000
  4.0  1.0  1.5     -20.000       4.000     0.00000
  4.0  2.0  1.5     -11.000       4.000     0.00000
  4.0  2.0  2.5     -11.000       6.000     0.00000
  4.0  3.0  2.5      -1.000       6.000     0.00000
  4.0  3.0  3.5      -1.000       8.000     0.00000
  5.0  0.0  0.5      -3.000       2.000     0.00000
  5.0  1.0  0.5      -2.200       2.000     0.00000
  5.0  1.0  1.5      -2.200       4.000     0.00000
  5.0  2.0  1.5      -0.500       4.000     0.00000
  5.0  2.0  2.5      -0.500       0.000     0.00000
  6.0  0.0  0.5      -0.200       2.000     0.00000
 ICORP=  0  NPCL=  0  DEMP=0.00  PEPS=0.000000
 R(1)=  0.1000000E-08 D=  0.1005080E+01 RNUC=  0.0000000E+00
 converged at cycle   63  DENSITY AVERAGING    0.1536
  MAXIMUM ERROR IN R.V(R) IS   0.78838061E-05
 Q,EY,EV,EZ,ESUM,ETOT,RHO  0.740000E+02 -0.431420E+03 -0.281568E+05 -0.403919E+05 -0.993885E+04 -0.161643E+05  0.726391E-09


 DIRAC CALCULATION
1                    TUNGSTEN ATOM 4d CORE RELATIVISTIC, Point Nuc, A and c from libtc


 EXCHANGE COEFFICIENT=  0.7000000           TAIL CORRECTION=  0.           NUCLEAR RADIUS=  0.000E+00
0                       ORBITAL    N    L    J     ELECTRONS     EIGENVALUE                DELTA OF EIGENV.

                          1S1/2  1.0  0.0  0.5     2.000       -0.2549514E+04                 0.5980249E-04
                          2S1/2  2.0  0.0  0.5     2.000       -0.4399118E+03                 0.5052420E-04
                          2P1/2  2.0  1.0  0.5     2.000       -0.4208427E+03                 0.5265062E-04
                          2P3/2  2.0  1.0  1.5     4.000       -0.3711192E+03                 0.5139442E-04
                          3S1/2  3.0  0.0  0.5     2.000       -0.1012881E+03                 0.3437035E-04
                          3P1/2  3.0  1.0  0.5     2.000       -0.9277148E+02                 0.3553128E-04
                          3P3/2  3.0  1.0  1.5     4.000       -0.8201733E+02                 0.3404634E-04
                          3D3/2  3.0  2.0  1.5     4.000       -0.6762803E+02                 0.3680712E-04
                          3D5/2  3.0  2.0  2.5     6.000       -0.6528623E+02                 0.3629511E-04
                          4S1/2  4.0  0.0  0.5     2.000       -0.2084139E+02                 0.1939427E-04
                          4P1/2  4.0  1.0  0.5     2.000       -0.1730737E+02                 0.1933978E-04
                          4P3/2  4.0  1.0  1.5     4.000       -0.1480597E+02                 0.1810922E-04
                          4D3/2  4.0  2.0  1.5     4.000       -0.8989319E+01                 0.1779394E-04
                          4D5/2  4.0  2.0  2.5     6.000       -0.8528007E+01                 0.1741170E-04
                          4F5/2  4.0  3.0  2.5     6.000       -0.1237480E+01                 0.1544089E-04
                          4F7/2  4.0  3.0  3.5     8.000       -0.1154634E+01                 0.1522033E-04
                          5S1/2  5.0  0.0  0.5     2.000       -0.2863514E+01                 0.7979521E-05
                          5P1/2  5.0  1.0  0.5     2.000       -0.1813289E+01                 0.7246225E-05
                          5P3/2  5.0  1.0  1.5     4.000       -0.1448762E+01                 0.6602120E-05
                          5D3/2  5.0  2.0  1.5     4.000       -0.1486933E+00                 0.3973088E-05
                          5D5/2  5.0  2.0  2.5     0.000       -0.1223153E+00                 0.3735081E-05
                          6S1/2  6.0  0.0  0.5     2.000       -0.1847434E+00                 0.1808440E-05


                                        NUCLEAR CHARGE=   74.000000
                            INTEGRAL OF CHARGE DENSITY=   74.000000
                           SUM OF THE ORBITAL ENERGIES=  -9938.8529
                                          TOTAL ENERGY= -16164.2530
                                        KINETIC ENERGY=  18217.9700
                             NUCLEAR ATTRACTION ENERGY= -40391.9132
                             ELECTRON REPULSION ENERGY=   6333.2551
                                       EXCHANGE ENERGY=   -323.5649

 *******************************************************************************

                             D I R A C   E X I T
 NORMAL TERMINATION



 =================
 Timing Statistics
 =================
  
 Total Used :                     CPU=        1.23      System=        0.01     Elapsed=        1.31

 Calls  Section                     ( Mean, Percentage )
 ---------------------------------------------------------------------------------------------------
     2  ><      ................      0.00    0.00             0.00    0.00             0.00    0.00
     1  EXIT PROCEDURE .........      1.23  100.00             0.01  100.00             1.31  100.00


 Currently Open Files (EXIT00)
 ====================

 Unit    Access Format  Status   Type       Ident (file)
 -------------------------------------------------------
   3      SEQ    FORM   TRANSP  NORMAL      LOGFILE
                                          ( logfile )
 
Create W   file=TZP-W.4d
XC
  GGA PBE
End
relativistic ZORA
Corepotentials t12.rel
End

 *******************************************************************************
 *                                                                             *
 *  -------------------------------------                                      *
 *   Amsterdam Density Functional  (ADF)         2019                          *
 *  -------------------------------------                                      *
 *                                               r79301 2019-11-09             *
 *                                                                             *
 *                                                                             *
 *                              =================                              *
 *                              |               |                              *
 *                              |     A D F     |                              *
 *                              |               |                              *
 *                              =================                              *
 *                                                                             *
 *                                                                             *
 *   Online information and documentation:  https://www.scm.com/support/       *
 *   E-mail:  support@scm.com   info@scm.com                                   *
 *                                                                             *
 *   Scientific publications using ADF results must be properly referenced     *
 *   See the User Manuals (or the web site) for recommended citations          *
 *   The terms and conditions of the End User License Agreement apply to       *
 *   the use of ADF, https://www.scm.com/license-terms/                        *
 *                                                                             *
 **********************  x86_64_linux_intel / intelmpi  ************************
 
 
 
  
 ADF 2019  RunTime: Oct13-2020 10:11:42  Nodes: 1  Procs: 1

 Temporary files are created in /scratch/kid_0.135448815 (0x58465342)

 Tungsten (TZP, 4d frozen)



 ===========================
 A T T A C H E D   F I L E S
 ===========================
  
 CREATE - Data File:    TZP-W.4d
                        Tungsten (TZP, 4d frozen)
 Core Potentials:
         file : t12.rel



 ===============================
 M O D E L   P A R A M E T E R S
 ===============================
  
 DENSITY FUNCTIONAL POTENTIAL (scf)
    LDA:                               PW92                                    == Not Default ==
    Gradient Corrections:              PBEc PBEx                               == Not Default ==

 SPIN  (restricted / unrestr.)
    Molecule:                          Restricted                               

 OTHER ASPECTS
    Relativistic Corrections:          scalar (ZORA,MAPA)                      == Not Default ==

    Nuclear Charge Density Model:      Point Charge Nuclei                      
    Core Treatment:                    Frozen Orbital(s)                        

    Hyperfine or Zeeman Interaction:   ---                                      



 =====================================
 S Y M M E T R Y ,   E L E C T R O N S
 =====================================
  
 Symmetry: ATOM

 Irreducible Representations, including subspecies
 -------------------------------------------------
 S
 P:x  P:y  P:z
 D:z2  D:x2-y2  D:xy  D:xz  D:yz
 F:z3  F:z  F:xyz  F:z2x  F:z2y  F:x  F:y


 Configuration of Valence Electrons
 ==================================

          Occupation Numbers
          -------------------------------------------------
 S        2*2
 P        6
 D        4
 F        14
          -------------------------------------------------

 Total:   28

 Net Charge: 0 (Nuclei minus Electrons)

 Preset values for MO occupations will be applied through SCF cycle no. 1000000
 Thereafter, the program will assign electrons to MOs that are spatially
 similar to the occupied MOs in a "reference" cycle ("KeepOrbitals").
 The reference cycle is always the PREVIOUS cycle: it will evolve with
 the SCF procedure.



 ================================
 (Slater-type)  F U N C T I O N S  ***  (Basis and Fit)  ***
 ================================
  

 Atom Type    1  (W)
 ==============

 Valence Basis Sets:  25
 -----------------------
   1 S   52.000000
   2 S   33.250000
   3 S   19.100000
   4 S   11.650000
   2 P   36.850000
   3 P   16.500000
   4 P   11.550000
   3 D   20.100000
   4 D   10.300000
   1 S  163.900000
   5 S    6.050000
   5 S    3.950000
   6 S    2.850000
   6 S    1.800000
   6 S    1.140000
   5 P    5.900000
   5 P    4.000000
   5 P    2.700000
   5 D    4.150000
   5 D    2.250000
   5 D    1.200000
   4 F   13.550000
   4 F    7.050000
   4 F    3.550000
   6 P    1.800000

 Frozen Core Shells
 ------------------
    S:  4
    P:  3
    D:  2


 BAS: List of all Elementary Cartesian Basis Functions
 =====================================================

 The numbering in the list below (to the right of the function characteristics) is referred
 to in print-outs of MO eigenvectors and Mulliken populations in the BAS representation
 (as contrasted to the SFO representation).

 Notes:
 1. The functions are characterized by a polynomial prefactor (powers of x,y,z and r) and
    an exponential decay factor alpha.
 2. Since the basis sets are specific for an atom TYPE, the individual functions occur on
    all atoms of that type.
 3. The word 'Core' in the left margin signals that it is a Core Function (CF) : not a
    degree of freedom in the valence set, but only used to ensure orthogonalization of
    the other valence basis functions on the frozen Core Orbitals.


 (power of) X  Y  Z  R     Alpha  on Atom
            ==========     =====     ==========

 W                                    1
                                  ---------------------------------------------------------------------------
    Core    0  0  0  0    52.000      1
    Core    0  0  0  1    33.250      2
    Core    0  0  0  2    19.100      3
    Core    0  0  0  3    11.650      4
    Core    1  0  0  0    36.850      5
    Core    0  1  0  0    36.850      6
    Core    0  0  1  0    36.850      7
    Core    1  0  0  1    16.500      8
    Core    0  1  0  1    16.500      9
    Core    0  0  1  1    16.500     10
    Core    1  0  0  2    11.550     11
    Core    0  1  0  2    11.550     12
    Core    0  0  1  2    11.550     13
    Core    2  0  0  0    20.100     14
    Core    1  1  0  0    20.100     15
    Core    1  0  1  0    20.100     16
    Core    0  2  0  0    20.100     17
    Core    0  1  1  0    20.100     18
    Core    0  0  2  0    20.100     19
    Core    2  0  0  1    10.300     20
    Core    1  1  0  1    10.300     21
    Core    1  0  1  1    10.300     22
    Core    0  2  0  1    10.300     23
    Core    0  1  1  1    10.300     24
    Core    0  0  2  1    10.300     25
            0  0  0  0   163.900     26
            0  0  0  4     6.050     27
            0  0  0  4     3.950     28
            0  0  0  5     2.850     29
            0  0  0  5     1.800     30
            0  0  0  5     1.140     31
            1  0  0  3     5.900     32
            0  1  0  3     5.900     33
            0  0  1  3     5.900     34
            1  0  0  3     4.000     35
            0  1  0  3     4.000     36
            0  0  1  3     4.000     37
            1  0  0  3     2.700     38
            0  1  0  3     2.700     39
            0  0  1  3     2.700     40
            2  0  0  2     4.150     41
            1  1  0  2     4.150     42
            1  0  1  2     4.150     43
            0  2  0  2     4.150     44
            0  1  1  2     4.150     45
            0  0  2  2     4.150     46
            2  0  0  2     2.250     47
            1  1  0  2     2.250     48
            1  0  1  2     2.250     49
            0  2  0  2     2.250     50
            0  1  1  2     2.250     51
            0  0  2  2     2.250     52
            2  0  0  2     1.200     53
            1  1  0  2     1.200     54
            1  0  1  2     1.200     55
            0  2  0  2     1.200     56
            0  1  1  2     1.200     57
            0  0  2  2     1.200     58
            3  0  0  0    13.550     59
            2  1  0  0    13.550     60
            2  0  1  0    13.550     61
            1  2  0  0    13.550     62
            1  1  1  0    13.550     63
            1  0  2  0    13.550     64
            0  3  0  0    13.550     65
            0  2  1  0    13.550     66
            0  1  2  0    13.550     67
            0  0  3  0    13.550     68
            3  0  0  0     7.050     69
            2  1  0  0     7.050     70
            2  0  1  0     7.050     71
            1  2  0  0     7.050     72
            1  1  1  0     7.050     73
            1  0  2  0     7.050     74
            0  3  0  0     7.050     75
            0  2  1  0     7.050     76
            0  1  2  0     7.050     77
            0  0  3  0     7.050     78
            3  0  0  0     3.550     79
            2  1  0  0     3.550     80
            2  0  1  0     3.550     81
            1  2  0  0     3.550     82
            1  1  1  0     3.550     83
            1  0  2  0     3.550     84
            0  3  0  0     3.550     85
            0  2  1  0     3.550     86
            0  1  2  0     3.550     87
            0  0  3  0     3.550     88
            1  0  0  4     1.800     89
            0  1  0  4     1.800     90
            0  0  1  4     1.800     91

 Total number of charge fitting functions (nprimf)       329
 Total number of Cartesian basis functions (naos)         91
 Total number of Cartesian core functions  (ncos)         25



 BAS: List of all Elementary Cartesian Basis Functions
 =====================================================

 The numbering in the list below (to the right of the function characteristics) is referred
 to in print-outs of MO eigenvectors and Mulliken populations in the BAS representation
 (as contrasted to the SFO representation).

 Notes:
 1. The functions are characterized by a polynomial prefactor (powers of x,y,z and r) and
    an exponential decay factor alpha.
 2. Since the basis sets are specific for an atom TYPE, the individual functions occur on
    all atoms of that type.
 3. The word 'Core' in the left margin signals that it is a Core Function (CF) : not a
    degree of freedom in the valence set, but only used to ensure orthogonalization of
    the other valence basis functions on the frozen Core Orbitals.


 (power of) X  Y  Z  R     Alpha  on Atom
            ==========     =====     ==========

 W                                    1
                                  ---------------------------------------------------------------------------
    Core    0  0  0  0    52.000      1
    Core    0  0  0  1    33.250      2
    Core    0  0  0  2    19.100      3
    Core    0  0  0  3    11.650      4
    Core    1  0  0  0    36.850      5
    Core    0  1  0  0    36.850      6
    Core    0  0  1  0    36.850      7
    Core    1  0  0  1    16.500      8
    Core    0  1  0  1    16.500      9
    Core    0  0  1  1    16.500     10
    Core    1  0  0  2    11.550     11
    Core    0  1  0  2    11.550     12
    Core    0  0  1  2    11.550     13
    Core    2  0  0  0    20.100     14
    Core    1  1  0  0    20.100     15
    Core    1  0  1  0    20.100     16
    Core    0  2  0  0    20.100     17
    Core    0  1  1  0    20.100     18
    Core    0  0  2  0    20.100     19
    Core    2  0  0  1    10.300     20
    Core    1  1  0  1    10.300     21
    Core    1  0  1  1    10.300     22
    Core    0  2  0  1    10.300     23
    Core    0  1  1  1    10.300     24
    Core    0  0  2  1    10.300     25
            0  0  0  0   163.900     26
            0  0  0  4     6.050     27
            0  0  0  4     3.950     28
            0  0  0  5     2.850     29
            0  0  0  5     1.800     30
            0  0  0  5     1.140     31
            1  0  0  3     5.900     32
            0  1  0  3     5.900     33
            0  0  1  3     5.900     34
            1  0  0  3     4.000     35
            0  1  0  3     4.000     36
            0  0  1  3     4.000     37
            1  0  0  3     2.700     38
            0  1  0  3     2.700     39
            0  0  1  3     2.700     40
            2  0  0  2     4.150     41
            1  1  0  2     4.150     42
            1  0  1  2     4.150     43
            0  2  0  2     4.150     44
            0  1  1  2     4.150     45
            0  0  2  2     4.150     46
            2  0  0  2     2.250     47
            1  1  0  2     2.250     48
            1  0  1  2     2.250     49
            0  2  0  2     2.250     50
            0  1  1  2     2.250     51
            0  0  2  2     2.250     52
            2  0  0  2     1.200     53
            1  1  0  2     1.200     54
            1  0  1  2     1.200     55
            0  2  0  2     1.200     56
            0  1  1  2     1.200     57
            0  0  2  2     1.200     58
            3  0  0  0    13.550     59
            2  1  0  0    13.550     60
            2  0  1  0    13.550     61
            1  2  0  0    13.550     62
            1  1  1  0    13.550     63
            1  0  2  0    13.550     64
            0  3  0  0    13.550     65
            0  2  1  0    13.550     66
            0  1  2  0    13.550     67
            0  0  3  0    13.550     68
            3  0  0  0     7.050     69
            2  1  0  0     7.050     70
            2  0  1  0     7.050     71
            1  2  0  0     7.050     72
            1  1  1  0     7.050     73
            1  0  2  0     7.050     74
            0  3  0  0     7.050     75
            0  2  1  0     7.050     76
            0  1  2  0     7.050     77
            0  0  3  0     7.050     78
            3  0  0  0     3.550     79
            2  1  0  0     3.550     80
            2  0  1  0     3.550     81
            1  2  0  0     3.550     82
            1  1  1  0     3.550     83
            1  0  2  0     3.550     84
            0  3  0  0     3.550     85
            0  2  1  0     3.550     86
            0  1  2  0     3.550     87
            0  0  3  0     3.550     88
            1  0  0  4     1.800     89
            0  1  0  4     1.800     90
            0  0  1  4     1.800     91
1
 ***************************************************************************************************



                                              ***********************
                                              *  T E C H N I C A L  *
                                              ***********************
  



 =============================================================
 P A R A L L E L I Z A T I O N  and  V E C T O R I Z A T I O N
 =============================================================
  
 Nr of parallel processes:                                1
 Maximum vector length in NumInt loops:                 128



 =====================
 S C F   U P D A T E S
 =====================
  
 Max. nr. of cycles:                               300
 Convergence criterion:                              0.0000000100
   secondary criterion:                              0.0000000100

 Mix parameter (when DIIS does not apply):           0.2000000000
 Special mix parameter for the first cycle:          1.0000000000
 Mixed ADIIS+SDIIS will be used                  
    Max number of expansion vectors:                10
    Pure ADIIS when Max([F,P]) is above              0.1000000000
    Pure SDIIS when Max([F,P]) is below              0.0010000000
 Automatic ElectronSmearing (in case of problematic SCF convergence) disabled



 =================
 P R E C I S I O N  ***  (General: NumInt, NeglectFunctionTails, ...)  ***
 =================
  

 NumInt:           Target precision:                12.0000000000
 -------           Initial precision:               10.0000000000
                   Min. precision (optimization):   10.0000000000

 Neglect Functions:          Basis functions:        0.1000000000E-13
 ------------------          Fit functions:          0.1000000000E-13



 ===========================
 L I N E A R   S C A L I N G
 ===========================
  

 Cut-off radii density fit:                        0.1000000000E-97
 Overlap cut-off criterion AO matrix elements:     0.1000000000E-97
 Cut-offs for Coulomb potential and fitted density:0.1000000000E-97
 Cut-off criterion for Coulomb multipole terms:    0.1000000000E-97
 Progressive Convergence parameter:                 0.000000000    
1
 ***************************************************************************************************



                                            ***************************
                                            *  C O M P U T A T I O N  *
                                            ***************************
  

 Number of elements of the density matrix on this node (used, total):      4186      4186



 ===========================================
 Numerical Integration : Fuzzy Cells (Becke)
 ===========================================
  
 Becke grid quality: VERYGOOD       
  
 Lebedev angular grid order:             min:  13 max:  41
 Nr. of radial points:                   min: 145 max: 145

 Total nr. of points:        145
 Nr. of blocks:                2
 Block length:                73
 Nr. of dummy points:          1


 Test of Precision of the Numerical Integration Grid
 ===================================================

 Integral of the Total Core Density:                  46.00000002324492
 Relative Error:                                       5.053E-10



 ========================
 Density Fitting (zlmFit)
 ========================
  
 ZlmFit Fit Quality: VERYGOOD       
  
 Max L-expansion:                        min:   0 max:   0
 Nr. of radial interpolation points:     min: 340 max: 340



 =====
 S C F  ***  ScaSCF  ***
 =====
  

 CYCLE    1
 SCF Error: norm([F,P])=      0.000000000000, max([F,P])=      0.000000000000
 orbitals (Q,E):
 ---------------
 S :1...6            ( 2.00   -28.2058)  ( 2.00   -16.4725)  ( 0.00   -10.3738)  ( 0.00    -6.6321)
                     ( 0.00    -4.0998)  ( 0.00  3013.3587)
 P :1...4            ( 6.00   -26.2502)  ( 0.00   -15.6809)  ( 0.00   -10.1451)  ( 0.00    -6.3840)
 D :1...3            ( 4.00   -20.3774)  ( 0.00   -10.3968)  ( 0.00    -5.4917)
 F :1...3            (14.00   -35.0607)  ( 0.00   -19.0417)  ( 0.00   -12.0152)

 CYCLE    2
  SDIIS (wt  0.000):  1.0000  0.0000
 A-DIIS (wt  1.000):  0.1993  0.8007
  DIIS coefficients:  0.1993  0.8007
 SCF Error: norm([F,P])=     40.907082825659, max([F,P])=      9.977402120499
 orbitals (Q,E):
 ---------------
 S :1...3            ( 2.00    -4.6780)  ( 2.00    -1.8638)  ( 0.00    -0.9989)
 P :1...2            ( 6.00    -3.4915)  ( 0.00    -1.5122)
 D :1...2            ( 4.00    -2.0619)  ( 0.00    -1.0071)
 F :1...2            (14.00    -1.8107)  ( 0.00     1.1317)

 CYCLE    3
  SDIIS (wt  0.000):  0.3180  0.6820
 A-DIIS (wt  1.000):  0.2378  0.7622
  DIIS coefficients:  0.2378  0.7622
 SCF Error: norm([F,P])=     22.137766809988, max([F,P])=      7.956550621466
 orbitals (Q,E):
 ---------------
 S :1...3            ( 2.00    -3.1832)  ( 2.00    -0.0954)  ( 0.00     0.0950)
 P :1...2            ( 6.00    -1.7164)  ( 0.00     0.0796)
 D :1...2            ( 4.00    -0.0523)  ( 0.00     0.2166)
 F :1...2            (14.00    -2.9552)  ( 0.00     2.1680)

 CYCLE    4
  SDIIS (wt  0.000): -0.1470  0.2408  0.9063
 A-DIIS (wt  1.000):  0.0000  0.1960  0.8040
  DIIS coefficients:  0.0000  0.1960  0.8040
 SCF Error: norm([F,P])=     11.319258211122, max([F,P])=      3.388378774288
 orbitals (Q,E):
 ---------------
 S :1...3            ( 2.00    -2.5382)  ( 2.00    -0.1744)  ( 0.00     0.0568)
 P :1...2            ( 6.00    -1.3109)  ( 0.00     0.0041)
 D :1...2            ( 4.00    -0.0593)  ( 0.00     0.1840)
 F :1...2            (14.00    -0.4483)  ( 0.00     2.6543)

 CYCLE    5
  SDIIS (wt  0.000): -0.0453 -0.0639  0.4150  0.6941
 A-DIIS (wt  1.000):  0.0000  0.0000  0.2956  0.7044
  DIIS coefficients:  0.0000  0.0000  0.2956  0.7044
 SCF Error: norm([F,P])=      6.468352795627, max([F,P])=      2.222974642389
 orbitals (Q,E):
 ---------------
 S :1...3            ( 2.00    -3.2723)  ( 2.00    -0.3187)  ( 0.00     0.0098)
 P :1...2            ( 6.00    -1.9237)  ( 0.00    -0.1006)
 D :1...2            ( 4.00    -0.3847)  ( 0.00     0.0899)
 F :1...2            (14.00    -1.8198)  ( 0.00     1.9560)

 CYCLE    6
  SDIIS (wt  0.000): -0.0085 -0.0399  0.0839  0.4322  0.5323
 A-DIIS (wt  1.000):  0.0000  0.0000  0.0000  0.2109  0.7891
  DIIS coefficients:  0.0000  0.0000  0.0000  0.2109  0.7891
 SCF Error: norm([F,P])=      2.472496419763, max([F,P])=      0.770355067313
 orbitals (Q,E):
 ---------------
 S :1...3            ( 2.00    -2.6997)  ( 2.00    -0.1670)  ( 0.00     0.0637)
 P :1...2            ( 6.00    -1.4226)  ( 0.00     0.0144)
 D :1...2            ( 4.00    -0.0756)  ( 0.00     0.1818)
 F :1...2            (14.00    -0.9561)  ( 0.00     2.4590)

 CYCLE    7
  SDIIS (wt  0.000): -0.0027  0.0194 -0.0224 -0.1264  0.3712  0.7611
 A-DIIS (wt  1.000):  0.0000  0.0000  0.0000  0.0000  0.2987  0.7013
  DIIS coefficients:  0.0000  0.0000  0.0000  0.0000  0.2987  0.7013
 SCF Error: norm([F,P])=      1.326888571520, max([F,P])=      0.409877416513
 orbitals (Q,E):
 ---------------
 S :1...3            ( 2.00    -2.9765)  ( 2.00    -0.2356)  ( 0.00     0.0368)
 P :1...2            ( 6.00    -1.6652)  ( 0.00    -0.0389)
 D :1...2            ( 4.00    -0.2166)  ( 0.00     0.1330)
 F :1...2            (14.00    -1.3505)  ( 0.00     2.2150)

 CYCLE    8
  SDIIS (wt  0.000): -0.0001 -0.0032  0.0101  0.0022 -0.1365  0.1637  0.9637
 A-DIIS (wt  1.000):  0.0000  0.0000  0.0000  0.0000  0.0000  0.1133  0.8867
  DIIS coefficients:  0.0000  0.0000  0.0000  0.0000  0.0000  0.1133  0.8867
 SCF Error: norm([F,P])=      0.417265552811, max([F,P])=      0.123103983384
 orbitals (Q,E):
 ---------------
 S :1...3            ( 2.00    -2.8269)  ( 2.00    -0.1934)  ( 0.00     0.0514)
 P :1...2            ( 6.00    -1.5319)  ( 0.00    -0.0062)
 D :1...2            ( 4.00    -0.1328)  ( 0.00     0.1598)
 F :1...2            (14.00    -1.1429)  ( 0.00     2.3483)

 CYCLE    9
  SDIIS (wt  0.000): -0.0000 -0.0005  0.0032 -0.0055 -0.0134 -0.0769  0.3889  0.7044
 A-DIIS (wt  1.000):  0.0000  0.0000  0.0000  0.0000  0.0000  0.0000  0.4605  0.5395
  DIIS coefficients:  0.0000  0.0000  0.0000  0.0000  0.0000  0.0000  0.4605  0.5395
 SCF Error: norm([F,P])=      0.436344656896, max([F,P])=      0.135977974745
 orbitals (Q,E):
 ---------------
 S :1...3            ( 2.00    -2.8921)  ( 2.00    -0.2089)  ( 0.00     0.0455)
 P :1...2            ( 6.00    -1.5884)  ( 0.00    -0.0182)
 D :1...2            ( 4.00    -0.1653)  ( 0.00     0.1491)
 F :1...2            (14.00    -1.2444)  ( 0.00     2.2903)

 CYCLE   10
  SDIIS (wt  0.791): -0.0000 -0.0000 -0.0008  0.0050  0.0002 -0.0572  0.0662  0.2518  0.7349
 A-DIIS (wt  0.209):  0.0000  0.0000  0.0000  0.0000  0.0000  0.0000  0.0000  0.0000  1.0000
  DIIS coefficients: -0.0000 -0.0000 -0.0006  0.0039  0.0002 -0.0453  0.0524  0.1992  0.7903
 SCF Error: norm([F,P])=      0.064290018173, max([F,P])=      0.021683563601
 orbitals (Q,E):
 ---------------
 S :1...3            ( 2.00    -2.8892)  ( 2.00    -0.2088)  ( 0.00     0.0453)
 P :1...2            ( 6.00    -1.5864)  ( 0.00    -0.0182)
 D :1...2            ( 4.00    -0.1648)  ( 0.00     0.1492)
 F :1...2            (14.00    -1.2344)  ( 0.00     2.2932)

 CYCLE   11
  SDIIS (wt  0.943):  0.0000  0.0000  0.0003 -0.0019 -0.0002  0.0169 -0.0071 -0.0713  1.0633
 A-DIIS (wt  0.057):  0.0000  0.0000  0.0000  0.0000  0.0000  0.0000  0.0000  0.0000  1.0000
  DIIS coefficients:  0.0000  0.0000  0.0003 -0.0018 -0.0002  0.0159 -0.0067 -0.0673  1.0597
 SCF Error: norm([F,P])=      0.019862243008, max([F,P])=      0.006614525786
 orbitals (Q,E):
 ---------------
 S :1...3            ( 2.00    -2.8906)  ( 2.00    -0.2091)  ( 0.00     0.0452)
 P :1...2            ( 6.00    -1.5875)  ( 0.00    -0.0184)
 D :1...2            ( 4.00    -0.1654)  ( 0.00     0.1490)
 F :1...2            (14.00    -1.2376)  ( 0.00     2.2919)

 CYCLE   12
  SDIIS (wt  1.000):  0.0000 -0.0000  0.0001  0.0002 -0.0010 -0.0025  0.0027  1.0005
  DIIS coefficients:  0.0000 -0.0000  0.0001  0.0002 -0.0010 -0.0025  0.0027  1.0005
 SCF Error: norm([F,P])=      0.001704368617, max([F,P])=      0.000557703287
 orbitals (Q,E):
 ---------------
 S :1...3            ( 2.00    -2.8904)  ( 2.00    -0.2090)  ( 0.00     0.0452)
 P :1...2            ( 6.00    -1.5874)  ( 0.00    -0.0184)
 D :1...2            ( 4.00    -0.1653)  ( 0.00     0.1490)
 F :1...2            (14.00    -1.2373)  ( 0.00     2.2920)

 CYCLE   13
  SDIIS (wt  1.000): -0.0000 -0.0000 -0.0000 -0.0001  0.0001 -0.0012  0.0054  0.1443  0.8513
  DIIS coefficients: -0.0000 -0.0000 -0.0000 -0.0001  0.0001 -0.0012  0.0054  0.1443  0.8513
 SCF Error: norm([F,P])=      0.000011644111, max([F,P])=      0.000003087293
 orbitals (Q,E):
 ---------------
 S :1...3            ( 2.00    -2.8904)  ( 2.00    -0.2090)  ( 0.00     0.0452)
 P :1...2            ( 6.00    -1.5874)  ( 0.00    -0.0184)
 D :1...2            ( 4.00    -0.1653)  ( 0.00     0.1490)
 F :1...2            (14.00    -1.2373)  ( 0.00     2.2920)

 CYCLE   14
  SDIIS (wt  1.000): -0.0000 -0.0001 -0.0006 -0.0016  1.0022
  DIIS coefficients: -0.0000 -0.0001 -0.0006 -0.0016  1.0022
 SCF Error: norm([F,P])=      0.000000013756, max([F,P])=      0.000000003650
 orbitals (Q,E):
 ---------------
 S :1...3            ( 2.00    -2.8904)  ( 2.00    -0.2090)  ( 0.00     0.0452)
 P :1...2            ( 6.00    -1.5874)  ( 0.00    -0.0184)
 D :1...2            ( 4.00    -0.1653)  ( 0.00     0.1490)
 F :1...2            (14.00    -1.2373)  ( 0.00     2.2920)

 SCF CONVERGED

 CYCLE   15
1
 ***************************************************************************************************



                                                *******************
                                                *  R E S U L T S  *
                                                *******************
  
 *** Using FIT density in Focky
  SDIIS (wt  1.000): -0.0000 -0.0000 -0.0330  1.0330
  DIIS coefficients: -0.0000 -0.0000 -0.0330  1.0330
 SCF Error: norm([F,P])=      0.000000001903, max([F,P])=      0.000000000602

 Scaled ZORA Orbital Energies, per Irrep and Spin:
 =================================================
                        Occup              E (au)              E (eV)       Diff (eV) with prev. cycle
                        -----      --------------------        ------       --------------------------
 S
               1        2.000     -0.28904146058131E+01       -78.652               1.69E-08
               2        2.000     -0.20903700188658E+00        -5.688               1.07E-08
               3        0.000      0.45235059600254E-01         1.231
               4        0.000      0.56065479131088E+00        15.256
               5        0.000      0.33274541694693E+01        90.545
               6        0.000      0.30455860934223E+04     82874.614
 P
               1        6.000     -0.15873724268740E+01       -43.195               1.66E-08
               2        0.000     -0.18381804002276E-01        -0.500
               3        0.000      0.75931517673511E+00        20.662
               4        0.000      0.46642512103923E+01       126.921
 D
               1        4.000     -0.16528259673387E+00        -4.498               1.44E-08
               2        0.000      0.14901440684391E+00         4.055
               3        0.000      0.12244232958062E+01        33.318
 F
               1       14.000     -0.12372769632872E+01       -33.668               2.06E-08
               2        0.000      0.22920435821191E+01        62.370
               3        0.000      0.17401159156906E+02       473.510


 Partially Occupied:
               1 D                -0.16528259673387E+00
  
 HOMO :        2 S                -0.20903700188658E+00
 LUMO :        2 P                -0.18381804002276E-01
  


 Orbital Energies, all Irreps
 ========================================

 Irrep        no.  (spin)   Occup              E (au)                E (eV)
 ---------------------------------------------------------------------------
 S             1             2.00       -0.28904146058131E+01       -78.6522
 P             1             6.00       -0.15873724268740E+01       -43.1946
 F             1            14.00       -0.12372769632872E+01       -33.6680
 S             2             2.00       -0.20903700188658E+00        -5.6882
 D             1             4.00       -0.16528259673387E+00        -4.4976
 P             2             0.00       -0.18381804002276E-01        -0.5002
 S             3             0.00        0.45235059600254E-01         1.2309
 D             2             0.00        0.14901440684391E+00         4.0549
 S             4             0.00        0.56065479131088E+00        15.2562
 P             3             0.00        0.75931517673511E+00        20.6620
 D             3             0.00        0.12244232958062E+01        33.3183
 F             2             0.00        0.22920435821191E+01        62.3697
 S             5             0.00        0.33274541694693E+01        90.5446
 P             4             0.00        0.46642512103923E+01       126.9207
 F             3             0.00        0.17401159156906E+02       473.5096
 S             6             0.00        0.30455860934223E+04     82874.6143


 Scaled ZORA Orbital Energies of the Core Orbitals:
 ==================================================

 (Note that the atoms are grouped by atomtype, see the labels, and may hence NOT be in input order)

 AtomType  Orbital  Atom                   E (au)                        E (eV)
 --------  -------  ----           --------------------        ----------------
 W           1S        1          -0.25482138824004E+04              -69340.428
             2S        1          -0.43960984780021E+03              -11962.393
             3S        1          -0.10127263228126E+03               -2755.769
             4S        1          -0.20907119428712E+02                -568.912
             2P        1          -0.38417169137867E+03              -10453.844
             3P        1          -0.84864891065852E+02               -2309.291
             4P        1          -0.15541477299623E+02                -422.905
             3D        1          -0.66165082684733E+02               -1800.444
             4D        1          -0.87737511763511E+01                -238.746



 =======================================
 M U L L I K E N   P O P U L A T I O N S
 =======================================
  
 The survey below gives for each atom:
 a) the total charge (Z minus electrons)
 b) the net spin polarization (nr of electrons spin-A minus spin-B)
 c) for each spin the atomic electron valence density (integrated) per L-value.

 Atom              Charge    Spin density          S         P         D         F
 ----              ------    ------------       ------    ------    ------    ------
 1 W              -0.0000                       4.0000    6.0000    4.0000   14.0000

 Populations of individual BAS functions
 ----------------------------------------
 1 W           -0.0024 -0.0016  0.0017  0.0821  0.0004  0.0004  0.0004 -0.0190 -0.0190 -0.0190
                0.1070  0.1070  0.1070  0.0007  0.0011  0.0011  0.0007  0.0011  0.0007  0.0102
                0.0153  0.0153  0.0102  0.0153  0.0102  0.0002  1.3184  0.6637  0.7095  1.0512
                0.1771  0.5899  0.5899  0.5899  1.2256  1.2256  1.2256  0.0879  0.0879  0.0879
                0.2040  0.3059  0.3059  0.2040  0.3059  0.2040  0.2699  0.4048  0.4048  0.2699
                0.4048  0.2699  0.0486  0.0728  0.0728  0.0486  0.0728  0.0486  0.2159  0.4319
                0.4319  0.4319  0.5399  0.4319  0.2159  0.4319  0.4319  0.2159  0.4698  0.9397
                0.9397  0.9397  1.1746  0.9397  0.4698  0.9397  0.9397  0.4698  0.1142  0.2284
                0.2284  0.2284  0.2855  0.2284  0.1142  0.2284  0.2284  0.1142  0.0081  0.0081
                0.0081

 Gross Charges per Atom (Z minus electrons)
 ==========================================
            -0.0000
 Net Total: -0.00000000



 =======================================================================
 Electrostatic potential at the Nuclei due to electrons and other nuclei
 =======================================================================
  
         Atom                  Potential
         ----                  ---------
     1)   W                 545.46052107
 
 
 ========================
 No memory problems found
 ========================
 
 Maximum number of active allocate calls:         487
 
 *******************************************************************************

                             A D F   E X I T
 NORMAL TERMINATION



 =================
 Timing Statistics
 =================
  
 Total Used :                     CPU=        2.69      System=        0.05     Elapsed=        2.82

 Calls  Section                     ( Mean, Percentage )
 ---------------------------------------------------------------------------------------------------
     3  ><      ................      0.00    0.15             0.00    6.52             0.00    0.24
     1  INIT    ................      0.13    4.72             0.00   10.87             0.14    4.98
     1  GEOMET  ................      0.03    1.12             0.00    6.52             0.04    1.44
     1  INPUTA  ................      0.01    0.19             0.00    2.17             0.01    0.24
     1  MAINSY  ................      0.03    1.23             0.00   10.87             0.05    1.76
     1  SYMFIT  ................      0.00    0.07             0.00    0.00             0.00    0.08
     1  CORORT  ................      0.00    0.07             0.00    2.17             0.00    0.12
     1  SYMORB  ................      0.00    0.04             0.00    0.00             0.00    0.06
     1  CLSMAT  ................      0.01    0.45             0.00    0.00             0.01    0.43
     1  ORTHON  ................      0.01    0.41             0.00    0.00             0.01    0.42
     1  GENPT   ................      0.04    1.49             0.00    2.17             0.04    1.53
     1  PTBAS   ................      0.01    0.30             0.00    6.52             0.01    0.44
    15  FOCKY   ................      0.14   80.25             0.00   36.96             0.15   78.04
    15  FOCKTR  ................      0.00    0.74             0.00    0.00             0.00    0.71
    15  SDIIS   ................      0.00    2.08             0.00    8.69             0.01    2.85
     1  COREPS  ................      0.14    5.17             0.00    2.17             0.14    5.03
     1  POPAN   ................      0.01    0.41             0.00    0.00             0.01    0.40
     1  DEBYE   ................      0.00    0.07             0.00    2.17             0.00    0.15
     1  EXIT PROCEDURE .........      0.03    1.04             0.00    2.17             0.03    1.08


 Currently Open Files (EXIT00)
 ====================

 Unit    Access Format  Status   Type       Ident (file)
 -------------------------------------------------------
   3      SEQ    FORM   TRANSP  NORMAL      LOGFILE
                                          ( logfile )

 ***************************************************************************************************
 (LOGFILE)
 <Oct13-2020> <10:11:38>  DIRAC 2019  RunTime: Oct13-2020 10:11:38  Nodes: 1  Procs: 1
 <Oct13-2020> <10:11:38>  NORMAL TERMINATION
 <Oct13-2020> <10:11:38>  END
 <Oct13-2020> <10:11:39>  ADF 2019  RunTime: Oct13-2020 10:11:39  Nodes: 1  Procs: 1
 <Oct13-2020> <10:11:40>  Oxygen (TZP, 1s frozen)
 <Oct13-2020> <10:11:40>  RunType   : CREATE
 <Oct13-2020> <10:11:40>  Net Charge: 0 (Nuclei minus Electrons)
 <Oct13-2020> <10:11:40>  Symmetry  : ATOM
  Coordinates
    Atom         X           Y           Z   (Angstrom)
    1.O         0.000000    0.000000    0.000000
 <Oct13-2020> <10:11:40>  >>>> CORORT
 <Oct13-2020> <10:11:40>  >>>> CLSMAT
 <Oct13-2020> <10:11:40>  >>>> ORTHON
 <Oct13-2020> <10:11:40>  >>>> GENPT
 <Oct13-2020> <10:11:40>  Block Length=  68
 <Oct13-2020> <10:11:40>  >>>> PTBAS
 <Oct13-2020> <10:11:40>  >>>> CYCLE
 <Oct13-2020> <10:11:40>              |Error|         MaxErr       Wt(A-DIIS)
 <Oct13-2020> <10:11:40>      1      0.00000000      0.00000000
 <Oct13-2020> <10:11:40>      2      4.56299337      2.52897111
 <Oct13-2020> <10:11:40>      3      2.72315525      1.79866705    100.0
 <Oct13-2020> <10:11:40>      4      0.28902714      0.13064862    100.0
 <Oct13-2020> <10:11:40>      5      0.41661509      0.23264367    100.0
 <Oct13-2020> <10:11:40>      6      0.01372327      0.00671904      5.8
 <Oct13-2020> <10:11:40>      7      0.00110365      0.00063404      0.0
 <Oct13-2020> <10:11:40>      8      0.00003592      0.00002026      0.0
 <Oct13-2020> <10:11:40>      9      0.00000033      0.00000018      0.0
 <Oct13-2020> <10:11:40>     10      0.00000000      0.00000000      0.0
 <Oct13-2020> <10:11:41>  SCF converged
 <Oct13-2020> <10:11:41>     11      0.00000000      0.00000000      0.0
 <Oct13-2020> <10:11:41>  >>>> POPAN
 <Oct13-2020> <10:11:41>  >>>> DEBYE
 <Oct13-2020> <10:11:41>  NORMAL TERMINATION
 <Oct13-2020> <10:11:41>  END
 <Oct13-2020> <10:11:41>  DIRAC 2019  RunTime: Oct13-2020 10:11:41  Nodes: 1  Procs: 1
 <Oct13-2020> <10:11:42>  NORMAL TERMINATION
 <Oct13-2020> <10:11:42>  END
 <Oct13-2020> <10:11:42>  ADF 2019  RunTime: Oct13-2020 10:11:42  Nodes: 1  Procs: 1
 <Oct13-2020> <10:11:42>  Tungsten (TZP, 4d frozen)
 <Oct13-2020> <10:11:42>  RunType   : CREATE
 <Oct13-2020> <10:11:42>  Net Charge: 0 (Nuclei minus Electrons)
 <Oct13-2020> <10:11:42>  Symmetry  : ATOM
  Coordinates
    Atom         X           Y           Z   (Angstrom)
    1.W         0.000000    0.000000    0.000000
 <Oct13-2020> <10:11:42>  >>>> CORORT
 <Oct13-2020> <10:11:42>  >>>> CLSMAT
 <Oct13-2020> <10:11:42>  >>>> ORTHON
 <Oct13-2020> <10:11:42>  >>>> GENPT
 <Oct13-2020> <10:11:42>  Block Length=  73
 <Oct13-2020> <10:11:42>  >>>> PTBAS
 <Oct13-2020> <10:11:42>  >>>> CYCLE
 <Oct13-2020> <10:11:43>              |Error|         MaxErr       Wt(A-DIIS)
 <Oct13-2020> <10:11:43>      1      0.00000000      0.00000000
 <Oct13-2020> <10:11:43>      2     40.90708283      9.97740212    100.0
 <Oct13-2020> <10:11:43>      3     22.13776681      7.95655062    100.0
 <Oct13-2020> <10:11:43>      4     11.31925821      3.38837877    100.0
 <Oct13-2020> <10:11:43>      5      6.46835280      2.22297464    100.0
 <Oct13-2020> <10:11:43>      6      2.47249642      0.77035507    100.0
 <Oct13-2020> <10:11:44>      7      1.32688857      0.40987742    100.0
 <Oct13-2020> <10:11:44>      8      0.41726555      0.12310398    100.0
 <Oct13-2020> <10:11:44>      9      0.43634466      0.13597797    100.0
 <Oct13-2020> <10:11:44>     10      0.06429002      0.02168356     20.9
 <Oct13-2020> <10:11:44>     11      0.01986224      0.00661453      5.7
 <Oct13-2020> <10:11:44>     12      0.00170437      0.00055770      0.0
 <Oct13-2020> <10:11:44>     13      0.00001164      0.00000309      0.0
 <Oct13-2020> <10:11:45>     14      0.00000001      0.00000000      0.0
 <Oct13-2020> <10:11:45>  SCF converged
 <Oct13-2020> <10:11:45>     15      0.00000000      0.00000000      0.0
 <Oct13-2020> <10:11:45>  >>>> POPAN
 <Oct13-2020> <10:11:45>  >>>> DEBYE
 <Oct13-2020> <10:11:45>  NORMAL TERMINATION
 <Oct13-2020> <10:11:45>  END


 Parallel Execution: Process Information
 ==============================================================================
 Rank   Node Name                              NodeID   MyNodeRank  NodeMaster
 ==============================================================================


May use up to 11511MB of RAM as shared memory on node 0
 

AnalyticalFreq
end

NumericalQuality Good

QTAIM
    Enabled Yes
End

Relativistic Scalar ZORA

SOLVATION
  Surf Delley
  Solv name=Water cav0=0.0 cav1=0.0067639
  Charged method=CONJ
  C-Mat POT
  SCF VAR ALL
  CSMRSP
  Radii
    H=1.30
    O=1.72
    W=1.992
  SubEnd
end

ScanFreq -1000 0

XC
  GGA PBE
end

atoms
      1         W      2.046519     -1.224192      3.070452
      2         W      2.245220      2.542991      4.606613
      3         O     -1.083590      4.149308      5.925775
      4         W      0.735082     -0.117017      5.926562
      5         W     -1.397612     -1.232411      3.389584
      6         W     -1.192916      2.639274      4.970081
      7         W     -2.737427     -0.032338      6.169642
      8         O      0.521288     -1.615945      4.729334
      9         O      0.701517      1.803644      6.121378
     10         O      1.705188      0.520180      4.236859
     11         O      0.209870      2.812863      3.779167
[...]
 <Oct13-2020> <10:21:08>      4      0.38272795      0.03136640    100.0
 <Oct13-2020> <10:21:22>      5      0.74350330      0.06059545    100.0
 <Oct13-2020> <10:21:37>      6      0.22587412      0.02864602     27.9
 <Oct13-2020> <10:21:51>      7      0.19840149      0.03477582     27.9
 <Oct13-2020> <10:22:05>      8      0.09904212      0.01127594     10.4
 <Oct13-2020> <10:22:19>      9      0.02284323      0.00259062      1.6
 <Oct13-2020> <10:22:34>     10      0.00841219      0.00090817      0.0
 <Oct13-2020> <10:22:48>     11      0.00400130      0.00042598      0.0
 <Oct13-2020> <10:23:02>     12      0.00105573      0.00015362      0.0
 <Oct13-2020> <10:23:16>     13      0.00043207      0.00005004      0.0
 <Oct13-2020> <10:23:30>     14      0.00027839      0.00004351      0.0
 <Oct13-2020> <10:23:44>     15      0.00013084      0.00001903      0.0
 <Oct13-2020> <10:23:58>     16      0.00003834      0.00000405      0.0
 <Oct13-2020> <10:24:12>     17      0.00001736      0.00000231      0.0
 <Oct13-2020> <10:24:26>     18      0.00002930      0.00000232      0.0
 <Oct13-2020> <10:24:40>     19      0.00001252      0.00000234      0.0
 <Oct13-2020> <10:24:54>     20      0.00000083      0.00000009      0.0
 <Oct13-2020> <10:24:59>  SCF converged
 <Oct13-2020> <10:25:08>     21      0.00000208      0.00000026      0.0
 <Oct13-2020> <10:25:14>  >>>> TOTEN
 <Oct13-2020> <10:25:34>  >>>> POPAN
 <Oct13-2020> <10:25:35>  >>>> DEBYE
 <Oct13-2020> <10:25:35>  >>>> ENGRAD
 <Oct13-2020> <10:26:35>  current energy                               -9.67519619 Hartree
 <Oct13-2020> <10:26:35>  energy change                      -0.00001216     0.00100000    T
 <Oct13-2020> <10:26:35>  constrained gradient max            0.00115866     0.00100000    F
 <Oct13-2020> <10:26:35>  constrained gradient rms            0.00024631     0.00066667    T
 <Oct13-2020> <10:26:35>  gradient max                        0.00115866
 <Oct13-2020> <10:26:35>  gradient rms                        0.00024631
 <Oct13-2020> <10:26:35>  cart. step max                      0.00185641     0.01000000    T
 <Oct13-2020> <10:26:35>  cart. step rms                      0.00068964     0.00666667    T
  Coordinates in Geometry Cycle 3
    Atom         X           Y           Z   (Angstrom)
    1.W         2.046843   -1.224936    3.070310
    2.W         2.244989    2.542917    4.608057
    3.O        -1.085307    4.149948    5.923187
    4.W         0.734934   -0.116633    5.926536
    5.W        -1.398170   -1.231706    3.389167
    6.W        -1.194264    2.638996    4.969179
    7.W        -2.737202   -0.032001    6.170005
    8.O         0.521200   -1.615996    4.729685
    9.O         0.700814    1.803936    6.122901
   10.O         1.705958    0.520316    4.235926
   11.O         0.209096    2.811912    3.777954
   12.O         3.457032   -1.653192    4.099653
   13.O         0.028467   -0.653256    2.365660
   14.O        -2.752286   -0.588948    2.432409
   15.O        -1.461346   -2.981955    3.015941
   16.O        -2.567810    2.971068    3.889336
   17.O        -0.672481   -0.499514    7.047193
   18.O        -2.205973    1.779124    6.549399
   19.O         2.064197    4.216055    5.263319
   20.O         2.790462   -0.365004    1.685818
   21.O        -3.298826   -0.653036    7.760895
   22.O        -1.222774    0.495250    4.679253
   23.O        -2.388198   -1.630885    5.155753
   24.O        -4.285182    0.373703    5.381474
   25.O         1.691271   -2.857856    2.386660
   26.O         2.963026    2.821863    2.990980
   27.O         2.087400   -0.607356    6.959267
   28.O         3.645238    2.003430    5.596920
 <Oct13-2020> <10:26:37>  >>>> CORORT
 <Oct13-2020> <10:26:38>  >>>> CLSMAT
 <Oct13-2020> <10:26:38>  >>>> ORTHON
 <Oct13-2020> <10:26:38>  >>>> GENPT
 <Oct13-2020> <10:26:38>  Block Length= 128
 <Oct13-2020> <10:26:39>  >>>> PTBAS
 <Oct13-2020> <10:26:58>  combining surface points...
 <Oct13-2020> <10:26:58>  combining surface points...
 <Oct13-2020> <10:26:58>  combining surface points...
 <Oct13-2020> <10:26:58>  >>>> CYCLE
 <Oct13-2020> <10:27:13>              |Error|         MaxErr       Wt(A-DIIS)
 <Oct13-2020> <10:27:13>      1      0.22708360      0.02015839
 <Oct13-2020> <10:27:27>      2      0.69553555      0.04705396    100.0
 <Oct13-2020> <10:27:42>      3      0.23163729      0.02164939    100.0
 <Oct13-2020> <10:27:57>      4      0.38580425      0.03166057    100.0
 <Oct13-2020> <10:28:11>      5      0.73282738      0.05959013    100.0
 <Oct13-2020> <10:28:25>      6      0.22575904      0.02885200     28.1
 <Oct13-2020> <10:28:40>      7      0.20236716      0.03556884     28.1
 <Oct13-2020> <10:28:54>      8      0.09916125      0.01096298     10.1
 <Oct13-2020> <10:29:08>      9      0.02286772      0.00256873      1.6
 <Oct13-2020> <10:29:22>     10      0.00838318      0.00089912      0.0
 <Oct13-2020> <10:29:36>     11      0.00401992      0.00042387      0.0
 <Oct13-2020> <10:29:50>     12      0.00105989      0.00015444      0.0
 <Oct13-2020> <10:30:05>     13      0.00043177      0.00005060      0.0
 <Oct13-2020> <10:30:19>     14      0.00027700      0.00004345      0.0
 <Oct13-2020> <10:30:33>     15      0.00013209      0.00001936      0.0
 <Oct13-2020> <10:30:47>     16      0.00003701      0.00000390      0.0
 <Oct13-2020> <10:31:01>     17      0.00001742      0.00000230      0.0
 <Oct13-2020> <10:31:15>     18      0.00002748      0.00000211      0.0
 <Oct13-2020> <10:31:29>     19      0.00001285      0.00000240      0.0
 <Oct13-2020> <10:31:43>     20      0.00000085      0.00000009      0.0
 <Oct13-2020> <10:31:48>  SCF converged
 <Oct13-2020> <10:31:57>     21      0.00000214      0.00000028      0.0
 <Oct13-2020> <10:32:03>  >>>> TOTEN
 <Oct13-2020> <10:32:23>  >>>> POPAN
 <Oct13-2020> <10:32:23>  >>>> DEBYE
 <Oct13-2020> <10:32:24>  >>>> ENGRAD
 <Oct13-2020> <10:33:23>  current energy                               -9.67521142 Hartree
 <Oct13-2020> <10:33:23>  energy change                      -0.00001523     0.00100000    T
 <Oct13-2020> <10:33:23>  constrained gradient max            0.00082226     0.00100000    T
 <Oct13-2020> <10:33:23>  constrained gradient rms            0.00019708     0.00066667    T
 <Oct13-2020> <10:33:23>  gradient max                        0.00082226
 <Oct13-2020> <10:33:23>  gradient rms                        0.00019708
 <Oct13-2020> <10:33:23>  cart. step max                      0.00131095     0.01000000    T
 <Oct13-2020> <10:33:23>  cart. step rms                      0.00041340     0.00666667    T
 <Oct13-2020> <10:33:23>  GEOMETRY CONVERGED
 <Oct13-2020> <10:33:23>  Calculating Energy Terms for Final Geometry
  Coordinates in Geometry Cycle 3
    Atom         X           Y           Z   (Angstrom)
    1.W         2.046843   -1.224936    3.070310
    2.W         2.244989    2.542917    4.608057
    3.O        -1.085307    4.149948    5.923187
    4.W         0.734934   -0.116633    5.926536
    5.W        -1.398170   -1.231706    3.389167
    6.W        -1.194264    2.638996    4.969179
    7.W        -2.737202   -0.032001    6.170005
    8.O         0.521200   -1.615996    4.729685
    9.O         0.700814    1.803936    6.122901
   10.O         1.705958    0.520316    4.235926
   11.O         0.209096    2.811912    3.777954
   12.O         3.457032   -1.653192    4.099653
   13.O         0.028467   -0.653256    2.365660
   14.O        -2.752286   -0.588948    2.432409
   15.O        -1.461346   -2.981955    3.015941
   16.O        -2.567810    2.971068    3.889336
   17.O        -0.672481   -0.499514    7.047193
   18.O        -2.205973    1.779124    6.549399
   19.O         2.064197    4.216055    5.263319
   20.O         2.790462   -0.365004    1.685818
   21.O        -3.298826   -0.653036    7.760895
   22.O        -1.222774    0.495250    4.679253
   23.O        -2.388198   -1.630885    5.155753
   24.O        -4.285182    0.373703    5.381474
   25.O         1.691271   -2.857856    2.386660
   26.O         2.963026    2.821863    2.990980
   27.O         2.087400   -0.607356    6.959267
   28.O         3.645238    2.003430    5.596920
 <Oct13-2020> <10:33:26>  >>>> CORORT
 <Oct13-2020> <10:33:27>  >>>> CLSMAT
 <Oct13-2020> <10:33:27>  >>>> ORTHON
 <Oct13-2020> <10:33:27>  >>>> GENPT
 <Oct13-2020> <10:33:28>  Block Length= 128
 <Oct13-2020> <10:33:28>  >>>> PTBAS
 <Oct13-2020> <10:33:47>  combining surface points...
 <Oct13-2020> <10:33:47>  combining surface points...
 <Oct13-2020> <10:33:47>  combining surface points...
 <Oct13-2020> <10:33:47>  >>>> CYCLE
 <Oct13-2020> <10:34:02>              |Error|         MaxErr       Wt(A-DIIS)
 <Oct13-2020> <10:34:02>      1      0.20732810      0.01694150
 <Oct13-2020> <10:34:17>      2      0.69614325      0.06036085    100.0
 <Oct13-2020> <10:34:32>      3      0.23148830      0.02276535    100.0
 <Oct13-2020> <10:34:46>      4      0.37973765      0.03688837    100.0
 <Oct13-2020> <10:35:00>      5      0.75656745      0.08045018    100.0
 <Oct13-2020> <10:35:15>      6      0.22690931      0.02740320     26.7
 <Oct13-2020> <10:35:29>      7      0.19053595      0.03201469     26.7
 <Oct13-2020> <10:35:43>      8      0.09605728      0.01231741     11.4
 <Oct13-2020> <10:35:58>      9      0.02347436      0.00269911      1.7
 <Oct13-2020> <10:36:12>     10      0.00852559      0.00089032      0.0
 <Oct13-2020> <10:36:27>     11      0.00395393      0.00040400      0.0
 <Oct13-2020> <10:36:41>     12      0.00104845      0.00015071      0.0
 <Oct13-2020> <10:36:56>     13      0.00043244      0.00004788      0.0
 <Oct13-2020> <10:37:10>     14      0.00026486      0.00003998      0.0
 <Oct13-2020> <10:37:24>     15      0.00012710      0.00001789      0.0
 <Oct13-2020> <10:37:38>     16      0.00003795      0.00000405      0.0
 <Oct13-2020> <10:37:52>     17      0.00001721      0.00000224      0.0
 <Oct13-2020> <10:38:06>     18      0.00003096      0.00000310      0.0
 <Oct13-2020> <10:38:20>     19      0.00001117      0.00000204      0.0
 <Oct13-2020> <10:38:34>     20      0.00000104      0.00000011      0.0
 <Oct13-2020> <10:38:39>  SCF converged
 <Oct13-2020> <10:38:48>     21      0.00000232      0.00000030      0.0
 <Oct13-2020> <10:38:59>  >>>> TOTEN
 <Oct13-2020> <10:39:44>  QTAIM: determining topology...
 <Oct13-2020> <10:40:43>  >>>> POPAN
 <Oct13-2020> <10:40:43>  >>>> DEBYE
 <Oct13-2020> <10:40:43>  >>>> AMETS
 <Oct13-2020> <10:40:43>  >>>> POPUL
 <Oct13-2020> <10:40:44>   Bond Energy          -9.67521142 a.u.
 <Oct13-2020> <10:40:44>   Bond Energy        -263.27589841 eV
 <Oct13-2020> <10:40:44>   Bond Energy       -6071.29       kcal/mol
 <Oct13-2020> <10:40:44>  >>>> ENHESS
 <Oct13-2020> <10:42:22>  === NUCLEUS:     1
 <Oct13-2020> <10:59:33>  === NUCLEUS:     2
 <Oct13-2020> <11:16:13>  === NUCLEUS:     3
 <Oct13-2020> <11:32:56>  === NUCLEUS:     4
 <Oct13-2020> <11:49:16>  === NUCLEUS:     5
 <Oct13-2020> <12:05:37>  === NUCLEUS:     6
 <Oct13-2020> <12:21:55>  === NUCLEUS:     7
 <Oct13-2020> <12:36:47>  === NUCLEUS:     8
 <Oct13-2020> <12:52:01>  === NUCLEUS:     9
 <Oct13-2020> <13:07:15>  === NUCLEUS:    10
 <Oct13-2020> <13:22:28>  === NUCLEUS:    11
 <Oct13-2020> <13:37:42>  === NUCLEUS:    12
 <Oct13-2020> <13:52:33>  === NUCLEUS:    13
 <Oct13-2020> <14:07:47>  === NUCLEUS:    14
 <Oct13-2020> <14:22:59>  === NUCLEUS:    15
 <Oct13-2020> <14:37:50>  === NUCLEUS:    16
 <Oct13-2020> <14:52:42>  === NUCLEUS:    17
 <Oct13-2020> <15:08:17>  === NUCLEUS:    18
 <Oct13-2020> <15:23:30>  === NUCLEUS:    19
 <Oct13-2020> <15:38:21>  === NUCLEUS:    20
 <Oct13-2020> <15:53:33>  === NUCLEUS:    21
 <Oct13-2020> <16:08:45>  === NUCLEUS:    22
 <Oct13-2020> <16:23:37>  === NUCLEUS:    23
 <Oct13-2020> <16:38:50>  === NUCLEUS:    24
 <Oct13-2020> <16:54:23>  === NUCLEUS:    25
 <Oct13-2020> <17:08:53>  === NUCLEUS:    26
 <Oct13-2020> <17:23:44>  === NUCLEUS:    27
 <Oct13-2020> <17:38:57>  === NUCLEUS:    28
 <Oct13-2020> <17:54:09>  >>>> CALC_HESS_PMAT
 <Oct13-2020> <17:57:24>  >>>> CALC_HESS_WMAT
 <Oct13-2020> <17:58:11>  Symmetry  : NOSYM
 <Oct13-2020> <17:58:11>  >>>> FRAGM
 <Oct13-2020> <17:58:11>  Geometry symmetry displacement    1 out of    2
  Coordinates in Geometry Cycle 3
    Atom         X           Y           Z   (Angstrom)
    1.W         2.046815   -1.224754    3.070168
    2.W         2.245033    2.542931    4.608271
    3.O        -1.085323    4.149984    5.922902
    4.W         0.734930   -0.116684    5.926526
    5.W        -1.398280   -1.231837    3.389243
    6.W        -1.194164    2.638942    4.969028
    7.W        -2.737204   -0.031946    6.170024
    8.O         0.521296   -1.616030    4.729707
    9.O         0.700728    1.803930    6.122874
   10.O         1.705959    0.520307    4.235933
   11.O         0.209296    2.811829    3.777881
   12.O         3.457473   -1.652574    4.099060
   13.O         0.028258   -0.653332    2.365675
   14.O        -2.752501   -0.589265    2.432512
   15.O        -1.461327   -2.982124    3.016161
   16.O        -2.567623    2.970889    3.889037
   17.O        -0.672485   -0.499493    7.047207
   18.O        -2.205947    1.779203    6.549272
   19.O         2.064178    4.216248    5.263059
   20.O         2.789776   -0.364914    1.685266
   21.O        -3.298826   -0.652833    7.760973
   22.O        -1.222777    0.495161    4.679221
   23.O        -2.388226   -1.630916    5.155898
   24.O        -4.285183    0.373719    5.381473
   25.O         1.691312   -2.857877    2.386970
   26.O         2.963668    2.821448    2.991385
   27.O         2.087393   -0.607416    6.959256
   28.O         3.644863    2.003499    5.597748
 <Oct13-2020> <17:58:13>  >>>> CORORT
 <Oct13-2020> <17:58:14>  >>>> CLSMAT
 <Oct13-2020> <17:58:14>  >>>> ORTHON
 <Oct13-2020> <17:58:14>  >>>> GENPT
 <Oct13-2020> <17:58:15>  Block Length= 128
 <Oct13-2020> <17:58:15>  >>>> PTBAS
 <Oct13-2020> <17:58:34>  combining surface points...
 <Oct13-2020> <17:58:34>  combining surface points...
 <Oct13-2020> <17:58:34>  combining surface points...
 <Oct13-2020> <17:58:34>  >>>> CYCLE
 <Oct13-2020> <17:58:48>              |Error|         MaxErr       Wt(A-DIIS)
 <Oct13-2020> <17:58:48>      1      0.20959712      0.01657435
 <Oct13-2020> <17:59:03>      2      0.69615229      0.04710808    100.0
 <Oct13-2020> <17:59:18>      3      0.23148870      0.02149948    100.0
 <Oct13-2020> <17:59:32>      4      0.37971919      0.03108361    100.0
 <Oct13-2020> <17:59:47>      5      0.75665643      0.06167135    100.0
 <Oct13-2020> <18:00:01>      6      0.22691581      0.02847017     27.7
 <Oct13-2020> <18:00:15>      7      0.19447903      0.03375361     27.7
 <Oct13-2020> <18:00:29>      8      0.09963248      0.01162854     10.7
 <Oct13-2020> <18:00:44>      9      0.02284137      0.00261204      1.6
 <Oct13-2020> <18:00:58>     10      0.00843826      0.00090649      0.0
 <Oct13-2020> <18:01:12>     11      0.00399332      0.00042431      0.0
 <Oct13-2020> <18:01:26>     12      0.00106053      0.00015334      0.0
 <Oct13-2020> <18:01:41>     13      0.00043407      0.00004928      0.0
 <Oct13-2020> <18:01:55>     14      0.00028134      0.00004372      0.0
 <Oct13-2020> <18:02:10>     15      0.00013071      0.00001896      0.0
 <Oct13-2020> <18:02:23>     16      0.00004019      0.00000427      0.0
 <Oct13-2020> <18:02:37>     17      0.00001735      0.00000232      0.0
 <Oct13-2020> <18:02:51>     18      0.00003159      0.00000253      0.0
 <Oct13-2020> <18:03:05>     19      0.00001228      0.00000228      0.0
 <Oct13-2020> <18:03:19>     20      0.00000083      0.00000009      0.0
 <Oct13-2020> <18:03:25>  SCF converged
 <Oct13-2020> <18:03:33>     21      0.00000209      0.00000026      0.0
 <Oct13-2020> <18:03:39>  >>>> TOTEN
 <Oct13-2020> <18:03:47>  >>>> POPAN
 <Oct13-2020> <18:03:47>  >>>> DEBYE
 <Oct13-2020> <18:03:47>  >>>> ENGRAD
 <Oct13-2020> <18:04:47>  Geometry symmetry displacement    2 out of    2
  Coordinates in Geometry Cycle 3
    Atom         X           Y           Z   (Angstrom)
    1.W         2.046870   -1.225118    3.070451
    2.W         2.244946    2.542903    4.607842
    3.O        -1.085290    4.149912    5.923471
    4.W         0.734939   -0.116582    5.926546
    5.W        -1.398059   -1.231574    3.389090
    6.W        -1.194364    2.639051    4.969329
    7.W        -2.737200   -0.032057    6.169985
    8.O         0.521104   -1.615963    4.729662
    9.O         0.700900    1.803941    6.122928
   10.O         1.705956    0.520325    4.235918
   11.O         0.208896    2.811996    3.778027
   12.O         3.456591   -1.653809    4.100246
   13.O         0.028676   -0.653180    2.365646
   14.O        -2.752071   -0.588632    2.432307
   15.O        -1.461364   -2.981786    3.015720
   16.O        -2.567997    2.971247    3.889635
   17.O        -0.672477   -0.499536    7.047178
   18.O        -2.205999    1.779046    6.549526
   19.O         2.064216    4.215862    5.263579
   20.O         2.791147   -0.365094    1.686369
   21.O        -3.298827   -0.653239    7.760816
   22.O        -1.222770    0.495340    4.679284
   23.O        -2.388170   -1.630854    5.155607
   24.O        -4.285181    0.373687    5.381476
   25.O         1.691230   -2.857834    2.386351
   26.O         2.962384    2.822278    2.990574
   27.O         2.087406   -0.607295    6.959278
   28.O         3.645612    2.003360    5.596093
 <Oct13-2020> <18:04:49>  >>>> CORORT
 <Oct13-2020> <18:04:50>  >>>> CLSMAT
 <Oct13-2020> <18:04:50>  >>>> ORTHON
 <Oct13-2020> <18:04:50>  >>>> GENPT
 <Oct13-2020> <18:04:50>  Block Length= 128
 <Oct13-2020> <18:04:51>  >>>> PTBAS
 <Oct13-2020> <18:05:09>  combining surface points...
 <Oct13-2020> <18:05:09>  combining surface points...
 <Oct13-2020> <18:05:09>  combining surface points...
 <Oct13-2020> <18:05:09>  >>>> CYCLE
 <Oct13-2020> <18:05:24>              |Error|         MaxErr       Wt(A-DIIS)
 <Oct13-2020> <18:05:24>      1      0.21625511      0.02235384
 <Oct13-2020> <18:05:39>      2      0.69613535      0.04713881    100.0
 <Oct13-2020> <18:05:54>      3      0.23148697      0.02150128    100.0
 <Oct13-2020> <18:06:08>      4      0.37973309      0.03108735    100.0
 <Oct13-2020> <18:06:22>      5      0.75660473      0.06166826    100.0
 <Oct13-2020> <18:06:36>      6      0.22692053      0.02847631     27.8
 <Oct13-2020> <18:06:51>      7      0.19450699      0.03375799     27.8
 <Oct13-2020> <18:07:05>      8      0.09965321      0.01162987     10.7
 <Oct13-2020> <18:07:19>      9      0.02284307      0.00261209      1.6
 <Oct13-2020> <18:07:33>     10      0.00843738      0.00090631      0.0
 <Oct13-2020> <18:07:47>     11      0.00399333      0.00042428      0.0
 <Oct13-2020> <18:08:02>     12      0.00106050      0.00015334      0.0
 <Oct13-2020> <18:08:16>     13      0.00043410      0.00004929      0.0
 <Oct13-2020> <18:08:30>     14      0.00028141      0.00004371      0.0
 <Oct13-2020> <18:08:44>     15      0.00013072      0.00001896      0.0
 <Oct13-2020> <18:08:58>     16      0.00004019      0.00000428      0.0
 <Oct13-2020> <18:09:12>     17      0.00001736      0.00000232      0.0
 <Oct13-2020> <18:09:26>     18      0.00003159      0.00000252      0.0
 <Oct13-2020> <18:09:39>     19      0.00001228      0.00000228      0.0
 <Oct13-2020> <18:09:53>     20      0.00000083      0.00000009      0.0
 <Oct13-2020> <18:09:59>  SCF converged
 <Oct13-2020> <18:10:07>     21      0.00000209      0.00000026      0.0
 <Oct13-2020> <18:10:13>  >>>> TOTEN
 <Oct13-2020> <18:10:21>  >>>> POPAN
 <Oct13-2020> <18:10:21>  >>>> DEBYE
 <Oct13-2020> <18:10:21>  >>>> ENGRAD
 <Oct13-2020> <18:11:21>  Old frequency:    -26.30351, new:     42.20385
 <Oct13-2020> <18:11:21>  NOTE: Some frequencies have been re-calculated by numerical differentiation
 <Oct13-2020> <18:11:21>        Check the text output file for new values!
 <Oct13-2020> <18:11:21>  NORMAL TERMINATION
 <Oct13-2020> <18:11:21>  END
