
 *******************************************************************************
 *                                                                             *
 *  -------------------------------------                                      *
 *   Amsterdam Density Functional  (ADF)         2019                          *
 *  -------------------------------------                                      *
 *                                               r79301 2019-11-09             *
 *                                                                             *
 *                                                                             *
 *                            =====================                            *
 *                            |                   |                            *
 *                            |     D I R A C     |                            *
 *                            |                   |                            *
 *                            =====================                            *
 *                                                                             *
 *                                                                             *
 *   Online information and documentation:  https://www.scm.com/support/       *
 *   E-mail:  support@scm.com   info@scm.com                                   *
 *                                                                             *
 *   Scientific publications using ADF results must be properly referenced     *
 *   See the User Manuals (or the web site) for recommended citations          *
 *   The terms and conditions of the End User License Agreement apply to       *
 *   the use of ADF, https://www.scm.com/license-terms/                        *
 *                                                                             *
 **********************  x86_64_linux_intel / intelmpi  ************************
 
 
 
  
 DIRAC 2019  RunTime: Sep08-2020 15:50:59  Nodes: 1  Procs: 1

 Temporary files are created in /scratch/kid_0.1363703344 (0x58465342)

1
 HYDROGEN ATOM RELATIVISTIC, Point Nuc, A and c from libtc   
 N J RN H ZN XION ANUC CLIGHT
 5000    1100.00000000197.36710137  1.00000000  0.00000000    1.007825  0.1370360E+03
  PH   PHI     EPS        DEL        DELRVR
  0.30  0.30     2500.00  0.00001000  0.00001000
 IDIRC  NC1  NDEBU NPRIN  IPUN IRCOR IWCOR
   1   300     0     0     0     0     0
   XALPHA      XLATTER      RNUC
  0.70000000  0.00000000  0.00000000 Point Charge
   XN   XL   XJ      XE          XZ      XDELL
  1.0  0.0  0.5      -1.000       1.000     0.00000
 ICORP=  0  NPCL=  0  DEMP=0.00  PEPS=0.000000
 R(1)=  0.1000000E-08 D=  0.1005080E+01 RNUC=  0.0000000E+00
 converged at cycle   32  DENSITY AVERAGING    0.2400
  MAXIMUM ERROR IN R.V(R) IS   0.79874357E-05
 Q,EY,EV,EZ,ESUM,ETOT,RHO  0.100000E+01 -0.266614E+00 -0.619969E+00 -0.910779E+00 -0.203940E+00 -0.415998E+00  0.337036E-17


 DIRAC CALCULATION
1                    HYDROGEN ATOM RELATIVISTIC, Point Nuc, A and c from libtc


 EXCHANGE COEFFICIENT=  0.7000000           TAIL CORRECTION=  0.           NUCLEAR RADIUS=  0.000E+00
0                       ORBITAL    N    L    J     ELECTRONS     EIGENVALUE                DELTA OF EIGENV.

                          1S1/2  1.0  0.0  0.5     1.000       -0.2039397E+00                 0.2720093E-06


                                        NUCLEAR CHARGE=    1.000000
                            INTEGRAL OF CHARGE DENSITY=    1.000000
                           SUM OF THE ORBITAL ENERGIES=     -0.2039
                                          TOTAL ENERGY=     -0.4160
                                        KINETIC ENERGY=      0.4160
                             NUCLEAR ATTRACTION ENERGY=     -0.9108
                             ELECTRON REPULSION ENERGY=      0.2787
                                       EXCHANGE ENERGY=     -0.2000

 *******************************************************************************

                             D I R A C   E X I T
 NORMAL TERMINATION



 =================
 Timing Statistics
 =================
  
 Total Used :                     CPU=        0.06      System=        0.00     Elapsed=        0.07

 Calls  Section                     ( Mean, Percentage )
 ---------------------------------------------------------------------------------------------------
     2  ><      ................      0.00    0.00             0.00    0.00             0.00    0.01
     1  EXIT PROCEDURE .........      0.06  100.00             0.00    0.00             0.07   99.99


 Currently Open Files (EXIT00)
 ====================

 Unit    Access Format  Status   Type       Ident (file)
 -------------------------------------------------------
   3      SEQ    FORM   TRANSP  NORMAL      LOGFILE
                                          ( logfile )
 
Create H   file=TZP-H
XC
  GGA PBE
End
relativistic ZORA
Corepotentials t12.rel
End

 *******************************************************************************
 *                                                                             *
 *  -------------------------------------                                      *
 *   Amsterdam Density Functional  (ADF)         2019                          *
 *  -------------------------------------                                      *
 *                                               r79301 2019-11-09             *
 *                                                                             *
 *                                                                             *
 *                              =================                              *
 *                              |               |                              *
 *                              |     A D F     |                              *
 *                              |               |                              *
 *                              =================                              *
 *                                                                             *
 *                                                                             *
 *   Online information and documentation:  https://www.scm.com/support/       *
 *   E-mail:  support@scm.com   info@scm.com                                   *
 *                                                                             *
 *   Scientific publications using ADF results must be properly referenced     *
 *   See the User Manuals (or the web site) for recommended citations          *
 *   The terms and conditions of the End User License Agreement apply to       *
 *   the use of ADF, https://www.scm.com/license-terms/                        *
 *                                                                             *
 **********************  x86_64_linux_intel / intelmpi  ************************
 
 
 
  
 ADF 2019  RunTime: Sep08-2020 15:50:59  Nodes: 1  Procs: 1

 Temporary files are created in /scratch/kid_0.1733085923 (0x58465342)

 Hydrogen (TZP)



 ===========================
 A T T A C H E D   F I L E S
 ===========================
  
 CREATE - Data File:    TZP-H
                        Hydrogen (TZP)
 Core Potentials:
         file : t12.rel



 ===============================
 M O D E L   P A R A M E T E R S
 ===============================
  
 DENSITY FUNCTIONAL POTENTIAL (scf)
    LDA:                               PW92                                    == Not Default ==
    Gradient Corrections:              PBEc PBEx                               == Not Default ==

 SPIN  (restricted / unrestr.)
    Molecule:                          Restricted                               

 OTHER ASPECTS
    Relativistic Corrections:          scalar (ZORA,MAPA)                      == Not Default ==

    Nuclear Charge Density Model:      Point Charge Nuclei                      
    Core Treatment:                    Frozen Orbital(s)                        

    Hyperfine or Zeeman Interaction:   ---                                      



 =====================================
 S Y M M E T R Y ,   E L E C T R O N S
 =====================================
  
 Symmetry: ATOM

 Irreducible Representations, including subspecies
 -------------------------------------------------
 S
 P:x  P:y  P:z
 D:z2  D:x2-y2  D:xy  D:xz  D:yz
 F:z3  F:z  F:xyz  F:z2x  F:z2y  F:x  F:y


 Configuration of Valence Electrons
 ==================================

          Occupation Numbers
          -------------------------------------------------
 S        1
 P        0
 D        0
 F        0
          -------------------------------------------------

 Total:   1

 Net Charge: 0 (Nuclei minus Electrons)

 Preset values for MO occupations will be applied through SCF cycle no. 1000000
 Thereafter, the program will assign electrons to MOs that are spatially
 similar to the occupied MOs in a "reference" cycle ("KeepOrbitals").
 The reference cycle is always the PREVIOUS cycle: it will evolve with
 the SCF procedure.



 ================================
 (Slater-type)  F U N C T I O N S  ***  (Basis and Fit)  ***
 ================================
  

 Atom Type    1  (H)
 ==============

 Valence Basis Sets:   4
 -----------------------
   1 S    0.690000
   1 S    0.920000
   1 S    1.580000
   2 P    1.250000


 BAS: List of all Elementary Cartesian Basis Functions
 =====================================================

 The numbering in the list below (to the right of the function characteristics) is referred
 to in print-outs of MO eigenvectors and Mulliken populations in the BAS representation
 (as contrasted to the SFO representation).

 Notes:
 1. The functions are characterized by a polynomial prefactor (powers of x,y,z and r) and
    an exponential decay factor alpha.
 2. Since the basis sets are specific for an atom TYPE, the individual functions occur on
    all atoms of that type.
 3. The word 'Core' in the left margin signals that it is a Core Function (CF) : not a
    degree of freedom in the valence set, but only used to ensure orthogonalization of
    the other valence basis functions on the frozen Core Orbitals.


 (power of) X  Y  Z  R     Alpha  on Atom
            ==========     =====     ==========

 H                                    1
                                  ---------------------------------------------------------------------------
            0  0  0  0     0.690      1
            0  0  0  0     0.920      2
            0  0  0  0     1.580      3
            1  0  0  0     1.250      4
            0  1  0  0     1.250      5
            0  0  1  0     1.250      6

 Total number of charge fitting functions (nprimf)        50
 Total number of Cartesian basis functions (naos)          6
 Total number of Cartesian core functions  (ncos)          0



 BAS: List of all Elementary Cartesian Basis Functions
 =====================================================

 The numbering in the list below (to the right of the function characteristics) is referred
 to in print-outs of MO eigenvectors and Mulliken populations in the BAS representation
 (as contrasted to the SFO representation).

 Notes:
 1. The functions are characterized by a polynomial prefactor (powers of x,y,z and r) and
    an exponential decay factor alpha.
 2. Since the basis sets are specific for an atom TYPE, the individual functions occur on
    all atoms of that type.
 3. The word 'Core' in the left margin signals that it is a Core Function (CF) : not a
    degree of freedom in the valence set, but only used to ensure orthogonalization of
    the other valence basis functions on the frozen Core Orbitals.


 (power of) X  Y  Z  R     Alpha  on Atom
            ==========     =====     ==========

 H                                    1
                                  ---------------------------------------------------------------------------
            0  0  0  0     0.690      1
            0  0  0  0     0.920      2
            0  0  0  0     1.580      3
            1  0  0  0     1.250      4
            0  1  0  0     1.250      5
            0  0  1  0     1.250      6
1
 ***************************************************************************************************



                                              ***********************
                                              *  T E C H N I C A L  *
                                              ***********************
  



 =============================================================
 P A R A L L E L I Z A T I O N  and  V E C T O R I Z A T I O N
 =============================================================
  
 Nr of parallel processes:                                1
 Maximum vector length in NumInt loops:                 128



 =====================
 S C F   U P D A T E S
 =====================
  
 Max. nr. of cycles:                               300
 Convergence criterion:                              0.0000000100
   secondary criterion:                              0.0000000100

 Mix parameter (when DIIS does not apply):           0.2000000000
 Special mix parameter for the first cycle:          1.0000000000
 Mixed ADIIS+SDIIS will be used                  
    Max number of expansion vectors:                10
    Pure ADIIS when Max([F,P]) is above              0.1000000000
    Pure SDIIS when Max([F,P]) is below              0.0010000000
 Automatic ElectronSmearing (in case of problematic SCF convergence) disabled



 =================
 P R E C I S I O N  ***  (General: NumInt, NeglectFunctionTails, ...)  ***
 =================
  

 NumInt:           Target precision:                12.0000000000
 -------           Initial precision:               10.0000000000
                   Min. precision (optimization):   10.0000000000

 Neglect Functions:          Basis functions:        0.1000000000E-13
 ------------------          Fit functions:          0.1000000000E-13



 ===========================
 L I N E A R   S C A L I N G
 ===========================
  

 Cut-off radii density fit:                        0.1000000000E-97
 Overlap cut-off criterion AO matrix elements:     0.1000000000E-97
 Cut-offs for Coulomb potential and fitted density:0.1000000000E-97
 Cut-off criterion for Coulomb multipole terms:    0.1000000000E-97
 Progressive Convergence parameter:                 0.000000000    
1
 ***************************************************************************************************



                                            ***************************
                                            *  C O M P U T A T I O N  *
                                            ***************************
  

 Number of elements of the density matrix on this node (used, total):        21        21



 ===========================================
 Numerical Integration : Fuzzy Cells (Becke)
 ===========================================
  
 Becke grid quality: VERYGOOD       
  
 Lebedev angular grid order:             min:  13 max:  41
 Nr. of radial points:                   min:  64 max:  64

 Total nr. of points:         64
 Nr. of blocks:                1
 Block length:                64
 Nr. of dummy points:          0


 Test of Precision of the Numerical Integration Grid
 ===================================================

 Integral of the Total Core Density:                   0.00000000000000



 ========================
 Density Fitting (zlmFit)
 ========================
  
 ZlmFit Fit Quality: VERYGOOD       
  
 Max L-expansion:                        min:   0 max:   0
 Nr. of radial interpolation points:     min: 120 max: 120



 =====
 S C F  ***  ScaSCF  ***
 =====
  

 CYCLE    1
 SCF Error: norm([F,P])=      0.000000000000, max([F,P])=      0.000000000000
 orbitals (Q,E):
 ---------------
 S :1...3            ( 1.00    -0.5000)  ( 0.00    -0.0900)  ( 0.00     1.2936)
 P :1...1            ( 0.00     0.1562)

 CYCLE    2
 SCF Error: norm([F,P])=      0.031537872292, max([F,P])=      0.030110494752
 orbitals (Q,E):
 ---------------
 S :1...2            ( 1.00    -0.2218)  ( 0.00     0.1019)
 P :1...1            ( 0.00     0.4189)

 CYCLE    3
  SDIIS (wt  0.000):  0.1996  0.8004
 A-DIIS (wt  1.000):  0.0000  1.0000
  DIIS coefficients:  0.0000  1.0000
 SCF Error: norm([F,P])=      0.008617989401, max([F,P])=      0.008343029399
 orbitals (Q,E):
 ---------------
 S :1...2            ( 1.00    -0.2422)  ( 0.00     0.0889)
 P :1...1            ( 0.00     0.4024)

 CYCLE    4
  SDIIS (wt  0.993):  0.1666  0.8334
 A-DIIS (wt  0.007):  0.0000  1.0000
  DIIS coefficients:  0.1654  0.8346
 SCF Error: norm([F,P])=      0.001732350026, max([F,P])=      0.001718616814
 orbitals (Q,E):
 ---------------
 S :1...2            ( 1.00    -0.2385)  ( 0.00     0.0908)
 P :1...1            ( 0.00     0.4054)

 CYCLE    5
  SDIIS (wt  1.000):  0.0236  0.9764
  DIIS coefficients:  0.0236  0.9764
 SCF Error: norm([F,P])=      0.000043673449, max([F,P])=      0.000039769875
 orbitals (Q,E):
 ---------------
 S :1...2            ( 1.00    -0.2386)  ( 0.00     0.0908)
 P :1...1            ( 0.00     0.4054)

 CYCLE    6
  SDIIS (wt  1.000): -0.0577  1.0577
  DIIS coefficients: -0.0577  1.0577
 SCF Error: norm([F,P])=      0.000002383805, max([F,P])=      0.000002158128
 orbitals (Q,E):
 ---------------
 S :1...2            ( 1.00    -0.2386)  ( 0.00     0.0908)
 P :1...1            ( 0.00     0.4054)

 CYCLE    7
  SDIIS (wt  1.000): -0.0032  1.0032
  DIIS coefficients: -0.0032  1.0032
 SCF Error: norm([F,P])=      0.000000007721, max([F,P])=      0.000000007228
 orbitals (Q,E):
 ---------------
 S :1...2            ( 1.00    -0.2386)  ( 0.00     0.0908)
 P :1...1            ( 0.00     0.4054)

 SCF CONVERGED

 CYCLE    8
1
 ***************************************************************************************************



                                                *******************
                                                *  R E S U L T S  *
                                                *******************
  
 *** Using FIT density in Focky
  SDIIS (wt  1.000):  0.0192  0.9808
  DIIS coefficients:  0.0192  0.9808
 SCF Error: norm([F,P])=      0.000000000151, max([F,P])=      0.000000000141

 Scaled ZORA Orbital Energies, per Irrep and Spin:
 =================================================
                        Occup              E (au)              E (eV)       Diff (eV) with prev. cycle
                        -----      --------------------        ------       --------------------------
 S
               1        1.000     -0.23861775226993E+00        -6.493               7.43E-09
               2        0.000      0.90791701709251E-01         2.471
               3        0.000      0.15217530108908E+01        41.409
 P
               1        0.000      0.40537978060393E+00        11.031


 Partially Occupied:
               1 S                -0.23861775226993E+00
  
 LUMO :        2 S                 0.90791701709251E-01
  


 Orbital Energies, all Irreps
 ========================================

 Irrep        no.  (spin)   Occup              E (au)                E (eV)
 ---------------------------------------------------------------------------
 S             1             1.00       -0.23861775226993E+00        -6.4931
 S             2             0.00        0.90791701709251E-01         2.4706
 P             1             0.00        0.40537978060393E+00        11.0309
 S             3             0.00        0.15217530108908E+01        41.4090


 All Electron Calculation, thus no Orbital Energies of the Core Orbitals are calculated



 =======================================
 M U L L I K E N   P O P U L A T I O N S
 =======================================
  
 The survey below gives for each atom:
 a) the total charge (Z minus electrons)
 b) the net spin polarization (nr of electrons spin-A minus spin-B)
 c) for each spin the atomic electron valence density (integrated) per L-value.

 Atom              Charge    Spin density          S         P         D         F
 ----              ------    ------------       ------    ------    ------    ------
 1 H              -0.0000                       1.0000    0.0000    0.0000    0.0000

 Populations of individual BAS functions
 ----------------------------------------
 1 H            0.2104  0.6788  0.1107  0.0000  0.0000  0.0000

 Gross Charges per Atom (Z minus electrons)
 ==========================================
            -0.0000
 Net Total: -0.00000000



 =======================================================================
 Electrostatic potential at the Nuclei due to electrons and other nuclei
 =======================================================================
  
         Atom                  Potential
         ----                  ---------
     1)   H                   0.94468022
 
 
 ========================
 No memory problems found
 ========================
 
 Maximum number of active allocate calls:         306
 
 *******************************************************************************

                             A D F   E X I T
 NORMAL TERMINATION



 =================
 Timing Statistics
 =================
  
 Total Used :                     CPU=        0.33      System=        0.02     Elapsed=        0.39

 Calls  Section                     ( Mean, Percentage )
 ---------------------------------------------------------------------------------------------------
     3  ><      ................      0.00    1.21             0.00    0.00             0.00    1.03
     1  INIT    ................      0.07   20.48             0.00   20.00             0.08   20.85
     1  GEOMET  ................      0.02    4.82             0.00   20.00             0.02    6.09
     1  INPUTA  ................      0.00    0.00             0.00    0.00             0.00    0.87
     1  MAINSY  ................      0.01    3.61             0.00    0.00             0.01    3.39
     1  SYMFIT  ................      0.00    0.00             0.00    0.00             0.00    0.42
     1  CORORT  ................      0.00    1.21             0.00    0.00             0.00    0.32
     1  SYMORB  ................      0.00    0.00             0.00    0.00             0.00    0.19
     1  CLSMAT  ................      0.00    1.20             0.00    0.00             0.01    1.34
     1  ORTHON  ................      0.00    1.20             0.00    0.00             0.00    1.22
     1  GENPT   ................      0.01    2.41             0.00   20.00             0.01    3.28
     1  PTBAS   ................      0.01    2.41             0.00    0.00             0.01    1.33
     8  FOCKY   ................      0.02   44.58             0.00   40.00             0.02   44.14
     8  FOCKTR  ................      0.00    0.00             0.00    0.00             0.00    1.23
     8  SDIIS   ................      0.00    8.43             0.00    0.00             0.00    5.68
     1  COREPS  ................      0.01    3.61             0.00    0.00             0.01    3.62
     1  POPAN   ................      0.00    1.20             0.00    0.00             0.00    1.20
     1  DEBYE   ................      0.00    0.00             0.00    0.00             0.00    0.48
     1  EXIT PROCEDURE .........      0.01    3.61             0.00    0.00             0.01    3.32


 Currently Open Files (EXIT00)
 ====================

 Unit    Access Format  Status   Type       Ident (file)
 -------------------------------------------------------
   3      SEQ    FORM   TRANSP  NORMAL      LOGFILE
                                          ( logfile )

 ***************************************************************************************************
 (LOGFILE)
 <Sep08-2020> <15:50:59>  DIRAC 2019  RunTime: Sep08-2020 15:50:59  Nodes: 1  Procs: 1
 <Sep08-2020> <15:50:59>  NORMAL TERMINATION
 <Sep08-2020> <15:50:59>  END
 <Sep08-2020> <15:50:59>  ADF 2019  RunTime: Sep08-2020 15:50:59  Nodes: 1  Procs: 1
 <Sep08-2020> <15:50:59>  Hydrogen (TZP)
 <Sep08-2020> <15:50:59>  RunType   : CREATE
 <Sep08-2020> <15:50:59>  Net Charge: 0 (Nuclei minus Electrons)
 <Sep08-2020> <15:50:59>  Symmetry  : ATOM
  Coordinates
    Atom         X           Y           Z   (Angstrom)
    1.H         0.000000    0.000000    0.000000
 <Sep08-2020> <15:50:59>  >>>> CORORT
 <Sep08-2020> <15:50:59>  >>>> CLSMAT
 <Sep08-2020> <15:50:59>  >>>> ORTHON
 <Sep08-2020> <15:50:59>  >>>> GENPT
 <Sep08-2020> <15:50:59>  Block Length=  64
 <Sep08-2020> <15:50:59>  >>>> PTBAS
 <Sep08-2020> <15:50:59>  >>>> CYCLE
 <Sep08-2020> <15:50:59>              |Error|         MaxErr       Wt(A-DIIS)
 <Sep08-2020> <15:50:59>      1      0.00000000      0.00000000
 <Sep08-2020> <15:50:59>      2      0.03153787      0.03011049
 <Sep08-2020> <15:50:59>      3      0.00861799      0.00834303    100.0
 <Sep08-2020> <15:50:59>      4      0.00173235      0.00171862      0.7
 <Sep08-2020> <15:50:59>      5      0.00004367      0.00003977      0.0
 <Sep08-2020> <15:50:59>      6      0.00000238      0.00000216      0.0
 <Sep08-2020> <15:50:59>      7      0.00000001      0.00000001      0.0
 <Sep08-2020> <15:50:59>  SCF converged
 <Sep08-2020> <15:50:59>      8      0.00000000      0.00000000      0.0
 <Sep08-2020> <15:50:59>  >>>> POPAN
 <Sep08-2020> <15:50:59>  >>>> DEBYE
 <Sep08-2020> <15:50:59>  NORMAL TERMINATION
 <Sep08-2020> <15:51:00>  END

 *******************************************************************************
 *                                                                             *
 *  -------------------------------------                                      *
 *   Amsterdam Density Functional  (ADF)         2019                          *
 *  -------------------------------------                                      *
 *                                               r79301 2019-11-09             *
 *                                                                             *
 *                                                                             *
 *                            =====================                            *
 *                            |                   |                            *
 *                            |     D I R A C     |                            *
 *                            |                   |                            *
 *                            =====================                            *
 *                                                                             *
 *                                                                             *
 *   Online information and documentation:  https://www.scm.com/support/       *
 *   E-mail:  support@scm.com   info@scm.com                                   *
 *                                                                             *
 *   Scientific publications using ADF results must be properly referenced     *
 *   See the User Manuals (or the web site) for recommended citations          *
 *   The terms and conditions of the End User License Agreement apply to       *
 *   the use of ADF, https://www.scm.com/license-terms/                        *
 *                                                                             *
 **********************  x86_64_linux_intel / intelmpi  ************************
 
 
 
  
 DIRAC 2019  RunTime: Sep08-2020 15:51:00  Nodes: 1  Procs: 1

 Temporary files are created in /scratch/kid_0.323907047 (0x58465342)

1
 OXYGEN ATOM 1s CORE RELATIVISTIC, Point Nuc, A and c from li
 N J RN H ZN XION ANUC CLIGHT
 5000    4100.00000000197.36710137  8.00000000  0.00000000   15.994914  0.1370360E+03
  PH   PHI     EPS        DEL        DELRVR
  0.30  0.30     2500.00  0.00001000  0.00001000
 IDIRC  NC1  NDEBU NPRIN  IPUN IRCOR IWCOR
   1   300     0     0     0     0     1
   XALPHA      XLATTER      RNUC
  0.70000000  0.00000000  0.00000000 Point Charge
   XN   XL   XJ      XE          XZ      XDELL
  1.0  0.0  0.5      -5.000       2.000     0.00000
  2.0  0.0  0.5      -1.000       2.000     0.00000
  2.0  1.0  0.5      -1.000       2.000     0.00000
  2.0  1.0  1.5      -1.000       2.000     0.00000
 ICORP=  0  NPCL=  0  DEMP=0.00  PEPS=0.000000
 R(1)=  0.1000000E-08 D=  0.1005080E+01 RNUC=  0.0000000E+00
 converged at cycle   28  DENSITY AVERAGING    0.2400
  MAXIMUM ERROR IN R.V(R) IS   0.81125670E-05
 Q,EY,EV,EZ,ESUM,ETOT,RHO  0.800000E+01 -0.101247E+02 -0.114961E+03 -0.177573E+03 -0.405053E+02 -0.743427E+02  0.414766E-14


 DIRAC CALCULATION
1                    OXYGEN ATOM 1s CORE RELATIVISTIC, Point Nuc, A and c from libtc


 EXCHANGE COEFFICIENT=  0.7000000           TAIL CORRECTION=  0.           NUCLEAR RADIUS=  0.000E+00
0                       ORBITAL    N    L    J     ELECTRONS     EIGENVALUE                DELTA OF EIGENV.

                          1S1/2  1.0  0.0  0.5     2.000       -0.1880014E+02                 0.7264358E-06
                          2S1/2  2.0  0.0  0.5     2.000       -0.8412236E+00                 0.5932752E-05
                          2P1/2  2.0  1.0  0.5     2.000       -0.3063203E+00                 0.5998471E-05
                          2P3/2  2.0  1.0  1.5     2.000       -0.3049609E+00                 0.5986971E-05


                                        NUCLEAR CHARGE=    8.000000
                            INTEGRAL OF CHARGE DENSITY=    8.000000
                           SUM OF THE ORBITAL ENERGIES=    -40.5053
                                          TOTAL ENERGY=    -74.3427
                                        KINETIC ENERGY=     74.4552
                             NUCLEAR ATTRACTION ENERGY=   -177.5730
                             ELECTRON REPULSION ENERGY=     36.3686
                                       EXCHANGE ENERGY=     -7.5935

 *******************************************************************************

                             D I R A C   E X I T
 NORMAL TERMINATION



 =================
 Timing Statistics
 =================
  
 Total Used :                     CPU=        0.11      System=        0.00     Elapsed=        0.12

 Calls  Section                     ( Mean, Percentage )
 ---------------------------------------------------------------------------------------------------
     2  ><      ................      0.00    0.00             0.00    0.00             0.00    0.00
     1  EXIT PROCEDURE .........      0.11  100.00             0.00    0.00             0.12  100.00


 Currently Open Files (EXIT00)
 ====================

 Unit    Access Format  Status   Type       Ident (file)
 -------------------------------------------------------
   3      SEQ    FORM   TRANSP  NORMAL      LOGFILE
                                          ( logfile )
 
Create O   file=TZP-O.1s
XC
  GGA PBE
End
relativistic ZORA
Corepotentials t12.rel
End

 *******************************************************************************
 *                                                                             *
 *  -------------------------------------                                      *
 *   Amsterdam Density Functional  (ADF)         2019                          *
 *  -------------------------------------                                      *
 *                                               r79301 2019-11-09             *
 *                                                                             *
 *                                                                             *
 *                              =================                              *
 *                              |               |                              *
 *                              |     A D F     |                              *
 *                              |               |                              *
 *                              =================                              *
 *                                                                             *
 *                                                                             *
 *   Online information and documentation:  https://www.scm.com/support/       *
 *   E-mail:  support@scm.com   info@scm.com                                   *
 *                                                                             *
 *   Scientific publications using ADF results must be properly referenced     *
 *   See the User Manuals (or the web site) for recommended citations          *
 *   The terms and conditions of the End User License Agreement apply to       *
 *   the use of ADF, https://www.scm.com/license-terms/                        *
 *                                                                             *
 **********************  x86_64_linux_intel / intelmpi  ************************
 
 
 
  
 ADF 2019  RunTime: Sep08-2020 15:51:00  Nodes: 1  Procs: 1

 Temporary files are created in /scratch/kid_0.1343549934 (0x58465342)

 Oxygen (TZP, 1s frozen)



 ===========================
 A T T A C H E D   F I L E S
 ===========================
  
 CREATE - Data File:    TZP-O.1s
                        Oxygen (TZP, 1s frozen)
 Core Potentials:
         file : t12.rel



 ===============================
 M O D E L   P A R A M E T E R S
 ===============================
  
 DENSITY FUNCTIONAL POTENTIAL (scf)
    LDA:                               PW92                                    == Not Default ==
    Gradient Corrections:              PBEc PBEx                               == Not Default ==

 SPIN  (restricted / unrestr.)
    Molecule:                          Restricted                               

 OTHER ASPECTS
    Relativistic Corrections:          scalar (ZORA,MAPA)                      == Not Default ==

    Nuclear Charge Density Model:      Point Charge Nuclei                      
    Core Treatment:                    Frozen Orbital(s)                        

    Hyperfine or Zeeman Interaction:   ---                                      



 =====================================
 S Y M M E T R Y ,   E L E C T R O N S
 =====================================
  
 Symmetry: ATOM

 Irreducible Representations, including subspecies
 -------------------------------------------------
 S
 P:x  P:y  P:z
 D:z2  D:x2-y2  D:xy  D:xz  D:yz
 F:z3  F:z  F:xyz  F:z2x  F:z2y  F:x  F:y


 Configuration of Valence Electrons
 ==================================

          Occupation Numbers
          -------------------------------------------------
 S        2
 P        4
 D        0
 F        0
          -------------------------------------------------

 Total:   6

 Net Charge: 0 (Nuclei minus Electrons)

 Preset values for MO occupations will be applied through SCF cycle no. 1000000
 Thereafter, the program will assign electrons to MOs that are spatially
 similar to the occupied MOs in a "reference" cycle ("KeepOrbitals").
 The reference cycle is always the PREVIOUS cycle: it will evolve with
 the SCF procedure.



 ================================
 (Slater-type)  F U N C T I O N S  ***  (Basis and Fit)  ***
 ================================
  

 Atom Type    1  (O)
 ==============

 Valence Basis Sets:   8
 -----------------------
   1 S    7.360000
   2 S    1.720000
   2 S    2.880000
   2 S    7.580000
   2 P    1.120000
   2 P    2.080000
   2 P    4.080000
   3 D    2.000000

 Frozen Core Shells
 ------------------
    S:  1


 BAS: List of all Elementary Cartesian Basis Functions
 =====================================================

 The numbering in the list below (to the right of the function characteristics) is referred
 to in print-outs of MO eigenvectors and Mulliken populations in the BAS representation
 (as contrasted to the SFO representation).

 Notes:
 1. The functions are characterized by a polynomial prefactor (powers of x,y,z and r) and
    an exponential decay factor alpha.
 2. Since the basis sets are specific for an atom TYPE, the individual functions occur on
    all atoms of that type.
 3. The word 'Core' in the left margin signals that it is a Core Function (CF) : not a
    degree of freedom in the valence set, but only used to ensure orthogonalization of
    the other valence basis functions on the frozen Core Orbitals.


 (power of) X  Y  Z  R     Alpha  on Atom
            ==========     =====     ==========

 O                                    1
                                  ---------------------------------------------------------------------------
    Core    0  0  0  0     7.360      1
            0  0  0  1     1.720      2
            0  0  0  1     2.880      3
            0  0  0  1     7.580      4
            1  0  0  0     1.120      5
            0  1  0  0     1.120      6
            0  0  1  0     1.120      7
            1  0  0  0     2.080      8
            0  1  0  0     2.080      9
            0  0  1  0     2.080     10
            1  0  0  0     4.080     11
            0  1  0  0     4.080     12
            0  0  1  0     4.080     13
            2  0  0  0     2.000     14
            1  1  0  0     2.000     15
            1  0  1  0     2.000     16
            0  2  0  0     2.000     17
            0  1  1  0     2.000     18
            0  0  2  0     2.000     19

 Total number of charge fitting functions (nprimf)        82
 Total number of Cartesian basis functions (naos)         19
 Total number of Cartesian core functions  (ncos)          1



 BAS: List of all Elementary Cartesian Basis Functions
 =====================================================

 The numbering in the list below (to the right of the function characteristics) is referred
 to in print-outs of MO eigenvectors and Mulliken populations in the BAS representation
 (as contrasted to the SFO representation).

 Notes:
 1. The functions are characterized by a polynomial prefactor (powers of x,y,z and r) and
    an exponential decay factor alpha.
 2. Since the basis sets are specific for an atom TYPE, the individual functions occur on
    all atoms of that type.
 3. The word 'Core' in the left margin signals that it is a Core Function (CF) : not a
    degree of freedom in the valence set, but only used to ensure orthogonalization of
    the other valence basis functions on the frozen Core Orbitals.


 (power of) X  Y  Z  R     Alpha  on Atom
            ==========     =====     ==========

 O                                    1
                                  ---------------------------------------------------------------------------
    Core    0  0  0  0     7.360      1
            0  0  0  1     1.720      2
            0  0  0  1     2.880      3
            0  0  0  1     7.580      4
            1  0  0  0     1.120      5
            0  1  0  0     1.120      6
            0  0  1  0     1.120      7
            1  0  0  0     2.080      8
            0  1  0  0     2.080      9
            0  0  1  0     2.080     10
            1  0  0  0     4.080     11
            0  1  0  0     4.080     12
            0  0  1  0     4.080     13
            2  0  0  0     2.000     14
            1  1  0  0     2.000     15
            1  0  1  0     2.000     16
            0  2  0  0     2.000     17
            0  1  1  0     2.000     18
            0  0  2  0     2.000     19
1
 ***************************************************************************************************



                                              ***********************
                                              *  T E C H N I C A L  *
                                              ***********************
  



 =============================================================
 P A R A L L E L I Z A T I O N  and  V E C T O R I Z A T I O N
 =============================================================
  
 Nr of parallel processes:                                1
 Maximum vector length in NumInt loops:                 128



 =====================
 S C F   U P D A T E S
 =====================
  
 Max. nr. of cycles:                               300
 Convergence criterion:                              0.0000000100
   secondary criterion:                              0.0000000100

 Mix parameter (when DIIS does not apply):           0.2000000000
 Special mix parameter for the first cycle:          1.0000000000
 Mixed ADIIS+SDIIS will be used                  
    Max number of expansion vectors:                10
    Pure ADIIS when Max([F,P]) is above              0.1000000000
    Pure SDIIS when Max([F,P]) is below              0.0010000000
 Automatic ElectronSmearing (in case of problematic SCF convergence) disabled



 =================
 P R E C I S I O N  ***  (General: NumInt, NeglectFunctionTails, ...)  ***
 =================
  

 NumInt:           Target precision:                12.0000000000
 -------           Initial precision:               10.0000000000
                   Min. precision (optimization):   10.0000000000

 Neglect Functions:          Basis functions:        0.1000000000E-13
 ------------------          Fit functions:          0.1000000000E-13



 ===========================
 L I N E A R   S C A L I N G
 ===========================
  

 Cut-off radii density fit:                        0.1000000000E-97
 Overlap cut-off criterion AO matrix elements:     0.1000000000E-97
 Cut-offs for Coulomb potential and fitted density:0.1000000000E-97
 Cut-off criterion for Coulomb multipole terms:    0.1000000000E-97
 Progressive Convergence parameter:                 0.000000000    
1
 ***************************************************************************************************



                                            ***************************
                                            *  C O M P U T A T I O N  *
                                            ***************************
  

 Number of elements of the density matrix on this node (used, total):       190       190



 ===========================================
 Numerical Integration : Fuzzy Cells (Becke)
 ===========================================
  
 Becke grid quality: VERYGOOD       
  
 Lebedev angular grid order:             min:  13 max:  41
 Nr. of radial points:                   min:  68 max:  68

 Total nr. of points:         68
 Nr. of blocks:                1
 Block length:                68
 Nr. of dummy points:          0


 Test of Precision of the Numerical Integration Grid
 ===================================================

 Integral of the Total Core Density:                   1.99999999865610
 Relative Error:                                      -6.720E-10



 ========================
 Density Fitting (zlmFit)
 ========================
  
 ZlmFit Fit Quality: VERYGOOD       
  
 Max L-expansion:                        min:   0 max:   0
 Nr. of radial interpolation points:     min: 140 max: 140



 =====
 S C F  ***  ScaSCF  ***
 =====
  

 CYCLE    1
 SCF Error: norm([F,P])=      0.000000000000, max([F,P])=      0.000000000000
 orbitals (Q,E):
 ---------------
 S :1...3            ( 2.00    -5.3654)  ( 0.00    -2.2073)  ( 0.00    23.6692)
 P :1...3            ( 4.00    -5.0045)  ( 0.00    -2.0150)  ( 0.00    -0.3846)
 D :1...1            ( 0.00    -2.0410)

 CYCLE    2
 SCF Error: norm([F,P])=      4.562993374873, max([F,P])=      2.528971113813
 orbitals (Q,E):
 ---------------
 S :1...2            ( 2.00    -0.1548)  ( 0.00     1.6948)
 P :1...2            ( 4.00     0.1773)  ( 0.00     0.9552)
 D :1...1            ( 0.00     1.4649)

 CYCLE    3
  SDIIS (wt  0.000):  0.3378  0.6622
 A-DIIS (wt  1.000):  0.4814  0.5186
  DIIS coefficients:  0.4814  0.5186
 SCF Error: norm([F,P])=      2.723155250500, max([F,P])=      1.798667049295
 orbitals (Q,E):
 ---------------
 S :1...2            ( 2.00    -1.1093)  ( 0.00     0.7549)
 P :1...2            ( 4.00    -0.5518)  ( 0.00     0.2590)
 D :1...1            ( 0.00     0.8910)

 CYCLE    4
  SDIIS (wt  0.000):  0.0919  0.9081
 A-DIIS (wt  1.000):  0.0000  1.0000
  DIIS coefficients:  0.0000  1.0000
 SCF Error: norm([F,P])=      0.289027138405, max([F,P])=      0.130648623511
 orbitals (Q,E):
 ---------------
 S :1...2            ( 2.00    -0.7707)  ( 0.00     0.9912)
 P :1...2            ( 4.00    -0.2284)  ( 0.00     0.4046)
 D :1...1            ( 0.00     1.1288)

 CYCLE    5
  SDIIS (wt  0.000):  0.0260  0.6740  0.3001
 A-DIIS (wt  1.000):  0.0000  0.5764  0.4236
  DIIS coefficients:  0.0000  0.5764  0.4236
 SCF Error: norm([F,P])=      0.416615089426, max([F,P])=      0.232643669786
 orbitals (Q,E):
 ---------------
 S :1...2            ( 2.00    -0.8764)  ( 0.00     0.9107)
 P :1...2            ( 4.00    -0.3280)  ( 0.00     0.3557)
 D :1...1            ( 0.00     1.0703)

 CYCLE    6
  SDIIS (wt  0.942):  0.0005  0.0237 -0.0203  0.9960
 A-DIIS (wt  0.058):  0.0000  0.0000  0.0000  1.0000
  DIIS coefficients:  0.0005  0.0224 -0.0191  0.9962
 SCF Error: norm([F,P])=      0.013723272809, max([F,P])=      0.006719036732
 orbitals (Q,E):
 ---------------
 S :1...2            ( 2.00    -0.8830)  ( 0.00     0.9058)
 P :1...2            ( 4.00    -0.3343)  ( 0.00     0.3521)
 D :1...1            ( 0.00     1.0657)

 CYCLE    7
  SDIIS (wt  1.000): -0.0000  0.0016  0.0023  0.0424  0.9537
  DIIS coefficients: -0.0000  0.0016  0.0023  0.0424  0.9537
 SCF Error: norm([F,P])=      0.001103645928, max([F,P])=      0.000634039171
 orbitals (Q,E):
 ---------------
 S :1...2            ( 2.00    -0.8827)  ( 0.00     0.9060)
 P :1...2            ( 4.00    -0.3340)  ( 0.00     0.3523)
 D :1...1            ( 0.00     1.0659)

 CYCLE    8
  SDIIS (wt  1.000): -0.0000 -0.0001  0.0000 -0.0032  0.0268  0.9765
  DIIS coefficients: -0.0000 -0.0001  0.0000 -0.0032  0.0268  0.9765
 SCF Error: norm([F,P])=      0.000035919805, max([F,P])=      0.000020263970
 orbitals (Q,E):
 ---------------
 S :1...2            ( 2.00    -0.8827)  ( 0.00     0.9060)
 P :1...2            ( 4.00    -0.3340)  ( 0.00     0.3522)
 D :1...1            ( 0.00     1.0659)

 CYCLE    9
  SDIIS (wt  1.000): -0.0000  0.0008  0.0188  0.9804
  DIIS coefficients: -0.0000  0.0008  0.0188  0.9804
 SCF Error: norm([F,P])=      0.000000326384, max([F,P])=      0.000000183924
 orbitals (Q,E):
 ---------------
 S :1...2            ( 2.00    -0.8827)  ( 0.00     0.9060)
 P :1...2            ( 4.00    -0.3340)  ( 0.00     0.3522)
 D :1...1            ( 0.00     1.0659)

 CYCLE   10
  SDIIS (wt  1.000):  0.0000  0.0003  0.9996
  DIIS coefficients:  0.0000  0.0003  0.9996
 SCF Error: norm([F,P])=      0.000000000559, max([F,P])=      0.000000000306
 orbitals (Q,E):
 ---------------
 S :1...2            ( 2.00    -0.8827)  ( 0.00     0.9060)
 P :1...2            ( 4.00    -0.3340)  ( 0.00     0.3522)
 D :1...1            ( 0.00     1.0659)

 SCF CONVERGED

 CYCLE   11
1
 ***************************************************************************************************



                                                *******************
                                                *  R E S U L T S  *
                                                *******************
  
 *** Using FIT density in Focky
  SDIIS (wt  1.000): -0.0000  0.0143  0.9857
  DIIS coefficients: -0.0000  0.0143  0.9857
 SCF Error: norm([F,P])=      0.000000000010, max([F,P])=      0.000000000006

 Scaled ZORA Orbital Energies, per Irrep and Spin:
 =================================================
                        Occup              E (au)              E (eV)       Diff (eV) with prev. cycle
                        -----      --------------------        ------       --------------------------
 S
               1        2.000     -0.88272313143209E+00       -24.020              -9.28E-11
               2        0.000      0.90601345014671E+00        24.654
               3        0.000      0.29578810816937E+02       804.880
 P
               1        4.000     -0.33400585272070E+00        -9.089              -8.94E-11
               2        0.000      0.35224911365993E+00         9.585
               3        0.000      0.38342927625315E+01       104.336
 D
               1        0.000      0.10658965783141E+01        29.005


 Partially Occupied:
               1 P                -0.33400585272070E+00
  
 HOMO :        1 S                -0.88272313143209E+00
 LUMO :        2 P                 0.35224911365993E+00
  


 Orbital Energies, all Irreps
 ========================================

 Irrep        no.  (spin)   Occup              E (au)                E (eV)
 ---------------------------------------------------------------------------
 S             1             2.00       -0.88272313143209E+00       -24.0201
 P             1             4.00       -0.33400585272070E+00        -9.0888
 P             2             0.00        0.35224911365993E+00         9.5852
 S             2             0.00        0.90601345014671E+00        24.6539
 D             1             0.00        0.10658965783141E+01        29.0045
 P             3             0.00        0.38342927625315E+01       104.3364
 S             3             0.00        0.29578810816937E+02       804.8804


 Scaled ZORA Orbital Energies of the Core Orbitals:
 ==================================================

 (Note that the atoms are grouped by atomtype, see the labels, and may hence NOT be in input order)

 AtomType  Orbital  Atom                   E (au)                        E (eV)
 --------  -------  ----           --------------------        ----------------
 O           1S        1          -0.18925919758629E+02                -515.000



 =======================================
 M U L L I K E N   P O P U L A T I O N S
 =======================================
  
 The survey below gives for each atom:
 a) the total charge (Z minus electrons)
 b) the net spin polarization (nr of electrons spin-A minus spin-B)
 c) for each spin the atomic electron valence density (integrated) per L-value.

 Atom              Charge    Spin density          S         P         D         F
 ----              ------    ------------       ------    ------    ------    ------
 1 O              -0.0000                       2.0000    4.0000    0.0000    0.0000

 Populations of individual BAS functions
 ----------------------------------------
 1 O            0.0005  0.9226  1.0966 -0.0196  0.3346  0.3346  0.3346  0.7512  0.7512  0.7512
                0.2476  0.2476  0.2476  0.0000  0.0000  0.0000  0.0000  0.0000  0.0000

 Gross Charges per Atom (Z minus electrons)
 ==========================================
            -0.0000
 Net Total: -0.00000000



 =======================================================================
 Electrostatic potential at the Nuclei due to electrons and other nuclei
 =======================================================================
  
         Atom                  Potential
         ----                  ---------
     1)   O                  22.20265662
 
 
 ========================
 No memory problems found
 ========================
 
 Maximum number of active allocate calls:         389
 
 *******************************************************************************

                             A D F   E X I T
 NORMAL TERMINATION



 =================
 Timing Statistics
 =================
  
 Total Used :                     CPU=        0.42      System=        0.02     Elapsed=        0.49

 Calls  Section                     ( Mean, Percentage )
 ---------------------------------------------------------------------------------------------------
     3  ><      ................      0.00    0.94             0.00    0.00             0.00    0.95
     1  INIT    ................      0.06   15.09             0.01   33.33             0.08   16.47
     1  GEOMET  ................      0.01    2.83             0.00   16.67             0.02    4.91
     1  INPUTA  ................      0.00    0.94             0.00    0.00             0.00    0.70
     1  MAINSY  ................      0.01    1.89             0.00   16.67             0.01    2.89
     1  SYMFIT  ................      0.00    0.00             0.00    0.00             0.00    0.33
     1  CORORT  ................      0.00    0.00             0.00    0.00             0.00    0.32
     1  SYMORB  ................      0.00    0.00             0.00    0.00             0.00    0.18
     1  CLSMAT  ................      0.01    1.89             0.00    0.00             0.01    1.19
     1  ORTHON  ................      0.00    0.94             0.00    0.00             0.01    1.07
     1  GENPT   ................      0.01    2.83             0.00    0.00             0.02    3.08
     1  PTBAS   ................      0.01    1.89             0.00    0.00             0.01    1.14
    11  FOCKY   ................      0.02   54.72             0.00   16.67             0.02   51.00
    11  FOCKTR  ................      0.00    0.94             0.00    0.00             0.00    1.54
    11  SDIIS   ................      0.00    7.55             0.00    0.00             0.00    6.32
     1  COREPS  ................      0.02    3.77             0.00    0.00             0.02    3.61
     1  POPAN   ................      0.00    0.94             0.00    0.00             0.01    1.13
     1  DEBYE   ................      0.00    0.94             0.00    0.00             0.00    0.40
     1  EXIT PROCEDURE .........      0.01    1.89             0.00   16.67             0.01    2.76


 Currently Open Files (EXIT00)
 ====================

 Unit    Access Format  Status   Type       Ident (file)
 -------------------------------------------------------
   3      SEQ    FORM   TRANSP  NORMAL      LOGFILE
                                          ( logfile )

 ***************************************************************************************************
 (LOGFILE)
 <Sep08-2020> <15:50:59>  DIRAC 2019  RunTime: Sep08-2020 15:50:59  Nodes: 1  Procs: 1
 <Sep08-2020> <15:50:59>  NORMAL TERMINATION
 <Sep08-2020> <15:50:59>  END
 <Sep08-2020> <15:50:59>  ADF 2019  RunTime: Sep08-2020 15:50:59  Nodes: 1  Procs: 1
 <Sep08-2020> <15:50:59>  Hydrogen (TZP)
 <Sep08-2020> <15:50:59>  RunType   : CREATE
 <Sep08-2020> <15:50:59>  Net Charge: 0 (Nuclei minus Electrons)
 <Sep08-2020> <15:50:59>  Symmetry  : ATOM
  Coordinates
    Atom         X           Y           Z   (Angstrom)
    1.H         0.000000    0.000000    0.000000
 <Sep08-2020> <15:50:59>  >>>> CORORT
 <Sep08-2020> <15:50:59>  >>>> CLSMAT
 <Sep08-2020> <15:50:59>  >>>> ORTHON
 <Sep08-2020> <15:50:59>  >>>> GENPT
 <Sep08-2020> <15:50:59>  Block Length=  64
 <Sep08-2020> <15:50:59>  >>>> PTBAS
 <Sep08-2020> <15:50:59>  >>>> CYCLE
 <Sep08-2020> <15:50:59>              |Error|         MaxErr       Wt(A-DIIS)
 <Sep08-2020> <15:50:59>      1      0.00000000      0.00000000
 <Sep08-2020> <15:50:59>      2      0.03153787      0.03011049
 <Sep08-2020> <15:50:59>      3      0.00861799      0.00834303    100.0
 <Sep08-2020> <15:50:59>      4      0.00173235      0.00171862      0.7
 <Sep08-2020> <15:50:59>      5      0.00004367      0.00003977      0.0
 <Sep08-2020> <15:50:59>      6      0.00000238      0.00000216      0.0
 <Sep08-2020> <15:50:59>      7      0.00000001      0.00000001      0.0
 <Sep08-2020> <15:50:59>  SCF converged
 <Sep08-2020> <15:50:59>      8      0.00000000      0.00000000      0.0
 <Sep08-2020> <15:50:59>  >>>> POPAN
 <Sep08-2020> <15:50:59>  >>>> DEBYE
 <Sep08-2020> <15:50:59>  NORMAL TERMINATION
 <Sep08-2020> <15:51:00>  END
 <Sep08-2020> <15:51:00>  DIRAC 2019  RunTime: Sep08-2020 15:51:00  Nodes: 1  Procs: 1
 <Sep08-2020> <15:51:00>  NORMAL TERMINATION
 <Sep08-2020> <15:51:00>  END
 <Sep08-2020> <15:51:00>  ADF 2019  RunTime: Sep08-2020 15:51:00  Nodes: 1  Procs: 1
 <Sep08-2020> <15:51:00>  Oxygen (TZP, 1s frozen)
 <Sep08-2020> <15:51:00>  RunType   : CREATE
 <Sep08-2020> <15:51:00>  Net Charge: 0 (Nuclei minus Electrons)
 <Sep08-2020> <15:51:00>  Symmetry  : ATOM
  Coordinates
    Atom         X           Y           Z   (Angstrom)
    1.O         0.000000    0.000000    0.000000
 <Sep08-2020> <15:51:00>  >>>> CORORT
 <Sep08-2020> <15:51:00>  >>>> CLSMAT
 <Sep08-2020> <15:51:00>  >>>> ORTHON
 <Sep08-2020> <15:51:00>  >>>> GENPT
 <Sep08-2020> <15:51:00>  Block Length=  68
 <Sep08-2020> <15:51:00>  >>>> PTBAS
 <Sep08-2020> <15:51:00>  >>>> CYCLE
 <Sep08-2020> <15:51:00>              |Error|         MaxErr       Wt(A-DIIS)
 <Sep08-2020> <15:51:00>      1      0.00000000      0.00000000
 <Sep08-2020> <15:51:00>      2      4.56299337      2.52897111
 <Sep08-2020> <15:51:00>      3      2.72315525      1.79866705    100.0
 <Sep08-2020> <15:51:00>      4      0.28902714      0.13064862    100.0
 <Sep08-2020> <15:51:00>      5      0.41661509      0.23264367    100.0
 <Sep08-2020> <15:51:00>      6      0.01372327      0.00671904      5.8
 <Sep08-2020> <15:51:00>      7      0.00110365      0.00063404      0.0
 <Sep08-2020> <15:51:00>      8      0.00003592      0.00002026      0.0
 <Sep08-2020> <15:51:00>      9      0.00000033      0.00000018      0.0
 <Sep08-2020> <15:51:00>     10      0.00000000      0.00000000      0.0
 <Sep08-2020> <15:51:00>  SCF converged
 <Sep08-2020> <15:51:00>     11      0.00000000      0.00000000      0.0
 <Sep08-2020> <15:51:00>  >>>> POPAN
 <Sep08-2020> <15:51:00>  >>>> DEBYE
 <Sep08-2020> <15:51:00>  NORMAL TERMINATION
 <Sep08-2020> <15:51:00>  END

 *******************************************************************************
 *                                                                             *
 *  -------------------------------------                                      *
 *   Amsterdam Density Functional  (ADF)         2019                          *
 *  -------------------------------------                                      *
 *                                               r79301 2019-11-09             *
 *                                                                             *
 *                                                                             *
 *                            =====================                            *
 *                            |                   |                            *
 *                            |     D I R A C     |                            *
 *                            |                   |                            *
 *                            =====================                            *
 *                                                                             *
 *                                                                             *
 *   Online information and documentation:  https://www.scm.com/support/       *
 *   E-mail:  support@scm.com   info@scm.com                                   *
 *                                                                             *
 *   Scientific publications using ADF results must be properly referenced     *
 *   See the User Manuals (or the web site) for recommended citations          *
 *   The terms and conditions of the End User License Agreement apply to       *
 *   the use of ADF, https://www.scm.com/license-terms/                        *
 *                                                                             *
 **********************  x86_64_linux_intel / intelmpi  ************************
 
 
 
  
 DIRAC 2019  RunTime: Sep08-2020 15:51:00  Nodes: 1  Procs: 1

 Temporary files are created in /scratch/kid_0.345143731 (0x58465342)

1
 TUNGSTEN ATOM 4d CORE RELATIVISTIC, Point Nuc, A and c from 
 N J RN H ZN XION ANUC CLIGHT
 5000   22100.00000000197.36710137 74.00000000  0.00000000  183.950932  0.1370360E+03
  PH   PHI     EPS        DEL        DELRVR
  0.30  0.30     2500.00  0.00001000  0.00001000
 IDIRC  NC1  NDEBU NPRIN  IPUN IRCOR IWCOR
   1   300     0     0     0     0    14
   XALPHA      XLATTER      RNUC
  0.70000000  0.00000000  0.00000000 Point Charge
   XN   XL   XJ      XE          XZ      XDELL
  1.0  0.0  0.5   -2600.000       2.000     0.00000
  2.0  0.0  0.5    -425.000       2.000     0.00000
  2.0  1.0  0.5    -425.000       2.000     0.00000
  2.0  1.0  1.5    -425.000       4.000     0.00000
  3.0  0.0  0.5    -100.000       2.000     0.00000
  3.0  1.0  0.5    -100.000       2.000     0.00000
  3.0  1.0  1.5    -100.000       4.000     0.00000
  3.0  2.0  1.5     -80.000       4.000     0.00000
  3.0  2.0  2.5     -80.000       6.000     0.00000
  4.0  0.0  0.5     -22.000       2.000     0.00000
  4.0  1.0  0.5     -20.000       2.000     0.00000
  4.0  1.0  1.5     -20.000       4.000     0.00000
  4.0  2.0  1.5     -11.000       4.000     0.00000
  4.0  2.0  2.5     -11.000       6.000     0.00000
  4.0  3.0  2.5      -1.000       6.000     0.00000
  4.0  3.0  3.5      -1.000       8.000     0.00000
  5.0  0.0  0.5      -3.000       2.000     0.00000
  5.0  1.0  0.5      -2.200       2.000     0.00000
  5.0  1.0  1.5      -2.200       4.000     0.00000
  5.0  2.0  1.5      -0.500       4.000     0.00000
  5.0  2.0  2.5      -0.500       0.000     0.00000
  6.0  0.0  0.5      -0.200       2.000     0.00000
 ICORP=  0  NPCL=  0  DEMP=0.00  PEPS=0.000000
 R(1)=  0.1000000E-08 D=  0.1005080E+01 RNUC=  0.0000000E+00
 converged at cycle   63  DENSITY AVERAGING    0.1536
  MAXIMUM ERROR IN R.V(R) IS   0.78838062E-05
 Q,EY,EV,EZ,ESUM,ETOT,RHO  0.740000E+02 -0.431420E+03 -0.281568E+05 -0.403919E+05 -0.993885E+04 -0.161643E+05  0.726391E-09


 DIRAC CALCULATION
1                    TUNGSTEN ATOM 4d CORE RELATIVISTIC, Point Nuc, A and c from libtc


 EXCHANGE COEFFICIENT=  0.7000000           TAIL CORRECTION=  0.           NUCLEAR RADIUS=  0.000E+00
0                       ORBITAL    N    L    J     ELECTRONS     EIGENVALUE                DELTA OF EIGENV.

                          1S1/2  1.0  0.0  0.5     2.000       -0.2549514E+04                 0.5980248E-04
                          2S1/2  2.0  0.0  0.5     2.000       -0.4399118E+03                 0.5052420E-04
                          2P1/2  2.0  1.0  0.5     2.000       -0.4208427E+03                 0.5265062E-04
                          2P3/2  2.0  1.0  1.5     4.000       -0.3711192E+03                 0.5139441E-04
                          3S1/2  3.0  0.0  0.5     2.000       -0.1012881E+03                 0.3437035E-04
                          3P1/2  3.0  1.0  0.5     2.000       -0.9277148E+02                 0.3553128E-04
                          3P3/2  3.0  1.0  1.5     4.000       -0.8201733E+02                 0.3404634E-04
                          3D3/2  3.0  2.0  1.5     4.000       -0.6762803E+02                 0.3680712E-04
                          3D5/2  3.0  2.0  2.5     6.000       -0.6528623E+02                 0.3629511E-04
                          4S1/2  4.0  0.0  0.5     2.000       -0.2084139E+02                 0.1939427E-04
                          4P1/2  4.0  1.0  0.5     2.000       -0.1730737E+02                 0.1933978E-04
                          4P3/2  4.0  1.0  1.5     4.000       -0.1480597E+02                 0.1810922E-04
                          4D3/2  4.0  2.0  1.5     4.000       -0.8989319E+01                 0.1779394E-04
                          4D5/2  4.0  2.0  2.5     6.000       -0.8528007E+01                 0.1741170E-04
                          4F5/2  4.0  3.0  2.5     6.000       -0.1237480E+01                 0.1544089E-04
                          4F7/2  4.0  3.0  3.5     8.000       -0.1154634E+01                 0.1522033E-04
                          5S1/2  5.0  0.0  0.5     2.000       -0.2863514E+01                 0.7979521E-05
                          5P1/2  5.0  1.0  0.5     2.000       -0.1813289E+01                 0.7246225E-05
                          5P3/2  5.0  1.0  1.5     4.000       -0.1448762E+01                 0.6602120E-05
                          5D3/2  5.0  2.0  1.5     4.000       -0.1486933E+00                 0.3973088E-05
                          5D5/2  5.0  2.0  2.5     0.000       -0.1223153E+00                 0.3735081E-05
                          6S1/2  6.0  0.0  0.5     2.000       -0.1847434E+00                 0.1808440E-05


                                        NUCLEAR CHARGE=   74.000000
                            INTEGRAL OF CHARGE DENSITY=   74.000000
                           SUM OF THE ORBITAL ENERGIES=  -9938.8529
                                          TOTAL ENERGY= -16164.2530
                                        KINETIC ENERGY=  18217.9700
                             NUCLEAR ATTRACTION ENERGY= -40391.9132
                             ELECTRON REPULSION ENERGY=   6333.2551
                                       EXCHANGE ENERGY=   -323.5649

 *******************************************************************************

                             D I R A C   E X I T
 NORMAL TERMINATION



 =================
 Timing Statistics
 =================
  
 Total Used :                     CPU=        0.68      System=        0.00     Elapsed=        0.70

 Calls  Section                     ( Mean, Percentage )
 ---------------------------------------------------------------------------------------------------
     2  ><      ................      0.00    0.00             0.00    0.00             0.00    0.00
     1  EXIT PROCEDURE .........      0.68  100.00             0.00  100.00             0.70  100.00


 Currently Open Files (EXIT00)
 ====================

 Unit    Access Format  Status   Type       Ident (file)
 -------------------------------------------------------
   3      SEQ    FORM   TRANSP  NORMAL      LOGFILE
                                          ( logfile )
 
Create W   file=TZP-W.4d
XC
  GGA PBE
End
relativistic ZORA
Corepotentials t12.rel
End

 *******************************************************************************
 *                                                                             *
 *  -------------------------------------                                      *
 *   Amsterdam Density Functional  (ADF)         2019                          *
 *  -------------------------------------                                      *
 *                                               r79301 2019-11-09             *
 *                                                                             *
 *                                                                             *
 *                              =================                              *
 *                              |               |                              *
 *                              |     A D F     |                              *
 *                              |               |                              *
 *                              =================                              *
 *                                                                             *
 *                                                                             *
 *   Online information and documentation:  https://www.scm.com/support/       *
 *   E-mail:  support@scm.com   info@scm.com                                   *
 *                                                                             *
 *   Scientific publications using ADF results must be properly referenced     *
 *   See the User Manuals (or the web site) for recommended citations          *
 *   The terms and conditions of the End User License Agreement apply to       *
 *   the use of ADF, https://www.scm.com/license-terms/                        *
 *                                                                             *
 **********************  x86_64_linux_intel / intelmpi  ************************
 
 
 
  
 ADF 2019  RunTime: Sep08-2020 15:51:01  Nodes: 1  Procs: 1

 Temporary files are created in /scratch/kid_0.718981276 (0x58465342)

 Tungsten (TZP, 4d frozen)



 ===========================
 A T T A C H E D   F I L E S
 ===========================
  
 CREATE - Data File:    TZP-W.4d
                        Tungsten (TZP, 4d frozen)
 Core Potentials:
         file : t12.rel



 ===============================
 M O D E L   P A R A M E T E R S
 ===============================
  
 DENSITY FUNCTIONAL POTENTIAL (scf)
    LDA:                               PW92                                    == Not Default ==
    Gradient Corrections:              PBEc PBEx                               == Not Default ==

 SPIN  (restricted / unrestr.)
    Molecule:                          Restricted                               

 OTHER ASPECTS
    Relativistic Corrections:          scalar (ZORA,MAPA)                      == Not Default ==

    Nuclear Charge Density Model:      Point Charge Nuclei                      
    Core Treatment:                    Frozen Orbital(s)                        

    Hyperfine or Zeeman Interaction:   ---                                      



 =====================================
 S Y M M E T R Y ,   E L E C T R O N S
 =====================================
  
 Symmetry: ATOM

 Irreducible Representations, including subspecies
 -------------------------------------------------
 S
 P:x  P:y  P:z
 D:z2  D:x2-y2  D:xy  D:xz  D:yz
 F:z3  F:z  F:xyz  F:z2x  F:z2y  F:x  F:y


 Configuration of Valence Electrons
 ==================================

          Occupation Numbers
          -------------------------------------------------
 S        2*2
 P        6
 D        4
 F        14
          -------------------------------------------------

 Total:   28

 Net Charge: 0 (Nuclei minus Electrons)

 Preset values for MO occupations will be applied through SCF cycle no. 1000000
 Thereafter, the program will assign electrons to MOs that are spatially
 similar to the occupied MOs in a "reference" cycle ("KeepOrbitals").
 The reference cycle is always the PREVIOUS cycle: it will evolve with
 the SCF procedure.



 ================================
 (Slater-type)  F U N C T I O N S  ***  (Basis and Fit)  ***
 ================================
  

 Atom Type    1  (W)
 ==============

 Valence Basis Sets:  25
 -----------------------
   1 S   52.000000
   2 S   33.250000
   3 S   19.100000
   4 S   11.650000
   2 P   36.850000
   3 P   16.500000
   4 P   11.550000
   3 D   20.100000
   4 D   10.300000
   1 S  163.900000
   5 S    6.050000
   5 S    3.950000
   6 S    2.850000
   6 S    1.800000
   6 S    1.140000
   5 P    5.900000
   5 P    4.000000
   5 P    2.700000
   5 D    4.150000
   5 D    2.250000
   5 D    1.200000
   4 F   13.550000
   4 F    7.050000
   4 F    3.550000
   6 P    1.800000

 Frozen Core Shells
 ------------------
    S:  4
    P:  3
    D:  2


 BAS: List of all Elementary Cartesian Basis Functions
 =====================================================

 The numbering in the list below (to the right of the function characteristics) is referred
 to in print-outs of MO eigenvectors and Mulliken populations in the BAS representation
 (as contrasted to the SFO representation).

 Notes:
 1. The functions are characterized by a polynomial prefactor (powers of x,y,z and r) and
    an exponential decay factor alpha.
 2. Since the basis sets are specific for an atom TYPE, the individual functions occur on
    all atoms of that type.
 3. The word 'Core' in the left margin signals that it is a Core Function (CF) : not a
    degree of freedom in the valence set, but only used to ensure orthogonalization of
    the other valence basis functions on the frozen Core Orbitals.


 (power of) X  Y  Z  R     Alpha  on Atom
            ==========     =====     ==========

 W                                    1
                                  ---------------------------------------------------------------------------
    Core    0  0  0  0    52.000      1
    Core    0  0  0  1    33.250      2
    Core    0  0  0  2    19.100      3
    Core    0  0  0  3    11.650      4
    Core    1  0  0  0    36.850      5
    Core    0  1  0  0    36.850      6
    Core    0  0  1  0    36.850      7
    Core    1  0  0  1    16.500      8
    Core    0  1  0  1    16.500      9
    Core    0  0  1  1    16.500     10
    Core    1  0  0  2    11.550     11
    Core    0  1  0  2    11.550     12
    Core    0  0  1  2    11.550     13
    Core    2  0  0  0    20.100     14
    Core    1  1  0  0    20.100     15
    Core    1  0  1  0    20.100     16
    Core    0  2  0  0    20.100     17
    Core    0  1  1  0    20.100     18
    Core    0  0  2  0    20.100     19
    Core    2  0  0  1    10.300     20
    Core    1  1  0  1    10.300     21
    Core    1  0  1  1    10.300     22
    Core    0  2  0  1    10.300     23
    Core    0  1  1  1    10.300     24
    Core    0  0  2  1    10.300     25
            0  0  0  0   163.900     26
            0  0  0  4     6.050     27
            0  0  0  4     3.950     28
            0  0  0  5     2.850     29
            0  0  0  5     1.800     30
            0  0  0  5     1.140     31
            1  0  0  3     5.900     32
            0  1  0  3     5.900     33
            0  0  1  3     5.900     34
            1  0  0  3     4.000     35
            0  1  0  3     4.000     36
            0  0  1  3     4.000     37
            1  0  0  3     2.700     38
            0  1  0  3     2.700     39
            0  0  1  3     2.700     40
            2  0  0  2     4.150     41
            1  1  0  2     4.150     42
            1  0  1  2     4.150     43
            0  2  0  2     4.150     44
            0  1  1  2     4.150     45
            0  0  2  2     4.150     46
            2  0  0  2     2.250     47
            1  1  0  2     2.250     48
            1  0  1  2     2.250     49
            0  2  0  2     2.250     50
            0  1  1  2     2.250     51
            0  0  2  2     2.250     52
            2  0  0  2     1.200     53
            1  1  0  2     1.200     54
            1  0  1  2     1.200     55
            0  2  0  2     1.200     56
            0  1  1  2     1.200     57
            0  0  2  2     1.200     58
            3  0  0  0    13.550     59
            2  1  0  0    13.550     60
            2  0  1  0    13.550     61
            1  2  0  0    13.550     62
            1  1  1  0    13.550     63
            1  0  2  0    13.550     64
            0  3  0  0    13.550     65
            0  2  1  0    13.550     66
            0  1  2  0    13.550     67
            0  0  3  0    13.550     68
            3  0  0  0     7.050     69
            2  1  0  0     7.050     70
            2  0  1  0     7.050     71
            1  2  0  0     7.050     72
            1  1  1  0     7.050     73
            1  0  2  0     7.050     74
            0  3  0  0     7.050     75
            0  2  1  0     7.050     76
            0  1  2  0     7.050     77
            0  0  3  0     7.050     78
            3  0  0  0     3.550     79
            2  1  0  0     3.550     80
            2  0  1  0     3.550     81
            1  2  0  0     3.550     82
            1  1  1  0     3.550     83
            1  0  2  0     3.550     84
            0  3  0  0     3.550     85
            0  2  1  0     3.550     86
            0  1  2  0     3.550     87
            0  0  3  0     3.550     88
            1  0  0  4     1.800     89
            0  1  0  4     1.800     90
            0  0  1  4     1.800     91

 Total number of charge fitting functions (nprimf)       329
 Total number of Cartesian basis functions (naos)         91
 Total number of Cartesian core functions  (ncos)         25



 BAS: List of all Elementary Cartesian Basis Functions
 =====================================================

 The numbering in the list below (to the right of the function characteristics) is referred
 to in print-outs of MO eigenvectors and Mulliken populations in the BAS representation
 (as contrasted to the SFO representation).

 Notes:
 1. The functions are characterized by a polynomial prefactor (powers of x,y,z and r) and
    an exponential decay factor alpha.
 2. Since the basis sets are specific for an atom TYPE, the individual functions occur on
    all atoms of that type.
 3. The word 'Core' in the left margin signals that it is a Core Function (CF) : not a
    degree of freedom in the valence set, but only used to ensure orthogonalization of
    the other valence basis functions on the frozen Core Orbitals.


 (power of) X  Y  Z  R     Alpha  on Atom
            ==========     =====     ==========

 W                                    1
                                  ---------------------------------------------------------------------------
    Core    0  0  0  0    52.000      1
    Core    0  0  0  1    33.250      2
    Core    0  0  0  2    19.100      3
    Core    0  0  0  3    11.650      4
    Core    1  0  0  0    36.850      5
    Core    0  1  0  0    36.850      6
    Core    0  0  1  0    36.850      7
    Core    1  0  0  1    16.500      8
    Core    0  1  0  1    16.500      9
    Core    0  0  1  1    16.500     10
    Core    1  0  0  2    11.550     11
    Core    0  1  0  2    11.550     12
    Core    0  0  1  2    11.550     13
    Core    2  0  0  0    20.100     14
    Core    1  1  0  0    20.100     15
    Core    1  0  1  0    20.100     16
    Core    0  2  0  0    20.100     17
    Core    0  1  1  0    20.100     18
    Core    0  0  2  0    20.100     19
    Core    2  0  0  1    10.300     20
    Core    1  1  0  1    10.300     21
    Core    1  0  1  1    10.300     22
    Core    0  2  0  1    10.300     23
    Core    0  1  1  1    10.300     24
    Core    0  0  2  1    10.300     25
            0  0  0  0   163.900     26
            0  0  0  4     6.050     27
            0  0  0  4     3.950     28
            0  0  0  5     2.850     29
            0  0  0  5     1.800     30
            0  0  0  5     1.140     31
            1  0  0  3     5.900     32
            0  1  0  3     5.900     33
            0  0  1  3     5.900     34
            1  0  0  3     4.000     35
            0  1  0  3     4.000     36
            0  0  1  3     4.000     37
            1  0  0  3     2.700     38
            0  1  0  3     2.700     39
            0  0  1  3     2.700     40
            2  0  0  2     4.150     41
            1  1  0  2     4.150     42
            1  0  1  2     4.150     43
            0  2  0  2     4.150     44
            0  1  1  2     4.150     45
            0  0  2  2     4.150     46
            2  0  0  2     2.250     47
            1  1  0  2     2.250     48
            1  0  1  2     2.250     49
            0  2  0  2     2.250     50
            0  1  1  2     2.250     51
            0  0  2  2     2.250     52
            2  0  0  2     1.200     53
            1  1  0  2     1.200     54
            1  0  1  2     1.200     55
            0  2  0  2     1.200     56
            0  1  1  2     1.200     57
            0  0  2  2     1.200     58
            3  0  0  0    13.550     59
            2  1  0  0    13.550     60
            2  0  1  0    13.550     61
            1  2  0  0    13.550     62
            1  1  1  0    13.550     63
            1  0  2  0    13.550     64
            0  3  0  0    13.550     65
            0  2  1  0    13.550     66
            0  1  2  0    13.550     67
            0  0  3  0    13.550     68
            3  0  0  0     7.050     69
            2  1  0  0     7.050     70
            2  0  1  0     7.050     71
            1  2  0  0     7.050     72
            1  1  1  0     7.050     73
            1  0  2  0     7.050     74
            0  3  0  0     7.050     75
            0  2  1  0     7.050     76
            0  1  2  0     7.050     77
            0  0  3  0     7.050     78
            3  0  0  0     3.550     79
            2  1  0  0     3.550     80
            2  0  1  0     3.550     81
            1  2  0  0     3.550     82
            1  1  1  0     3.550     83
[...]
 <Sep08-2020> <16:09:36>  >>>> CORORT
 <Sep08-2020> <16:09:36>  >>>> CLSMAT
 <Sep08-2020> <16:09:36>  >>>> ORTHON
 <Sep08-2020> <16:09:36>  >>>> GENPT
 <Sep08-2020> <16:09:36>  Block Length= 128
 <Sep08-2020> <16:09:36>  >>>> PTBAS
 <Sep08-2020> <16:09:40>  combining surface points...
 <Sep08-2020> <16:09:40>  combining surface points...
 <Sep08-2020> <16:09:40>  combining surface points...
 <Sep08-2020> <16:09:40>  >>>> CYCLE
 <Sep08-2020> <16:09:45>              |Error|         MaxErr       Wt(A-DIIS)
 <Sep08-2020> <16:09:45>      1      0.17768427      0.04470027
 <Sep08-2020> <16:09:49>      2      0.23471893      0.02684602    100.0
 <Sep08-2020> <16:09:52>      3      0.07099141      0.00770588    100.0
 <Sep08-2020> <16:09:55>      4      0.08106590      0.01078915    100.0
 <Sep08-2020> <16:09:58>      5      0.29878368      0.03611231    100.0
 <Sep08-2020> <16:10:02>      6      0.09265547      0.01169795    100.0
 <Sep08-2020> <16:10:05>      7      0.04105310      0.00510981      4.2
 <Sep08-2020> <16:10:08>      8      0.00943621      0.00134686      0.4
 <Sep08-2020> <16:10:11>      9      0.00410440      0.00050218      0.0
 <Sep08-2020> <16:10:15>     10      0.00239115      0.00027063      0.0
 <Sep08-2020> <16:10:18>     11      0.00052892      0.00006796      0.0
 <Sep08-2020> <16:10:21>     12      0.00033728      0.00003666      0.0
 <Sep08-2020> <16:10:24>     13      0.00013776      0.00001561      0.0
 <Sep08-2020> <16:10:27>     14      0.00008093      0.00000972      0.0
 <Sep08-2020> <16:10:30>     15      0.00003386      0.00000404      0.0
 <Sep08-2020> <16:10:33>     16      0.00002341      0.00000293      0.0
 <Sep08-2020> <16:10:36>     17      0.00000940      0.00000111      0.0
 <Sep08-2020> <16:10:39>     18      0.00000660      0.00000084      0.0
 <Sep08-2020> <16:10:40>  SCF converged
 <Sep08-2020> <16:10:42>     19      0.00000336      0.00000042      0.0
 <Sep08-2020> <16:10:43>  >>>> TOTEN
 <Sep08-2020> <16:10:47>  >>>> POPAN
 <Sep08-2020> <16:10:47>  >>>> DEBYE
 <Sep08-2020> <16:10:47>  >>>> ENGRAD
 <Sep08-2020> <16:11:00>  current energy                               -8.67218103 Hartree
 <Sep08-2020> <16:11:00>  energy change                      -0.00001261     0.00100000    T
 <Sep08-2020> <16:11:00>  constrained gradient max            0.00101949     0.00100000    F
 <Sep08-2020> <16:11:00>  constrained gradient rms            0.00029133     0.00066667    T
 <Sep08-2020> <16:11:00>  gradient max                        0.00101949
 <Sep08-2020> <16:11:00>  gradient rms                        0.00029133
 <Sep08-2020> <16:11:00>  cart. step max                      0.00577613     0.01000000    T
 <Sep08-2020> <16:11:00>  cart. step rms                      0.00196997     0.00666667    T
  Coordinates in Geometry Cycle 15
    Atom         X           Y           Z   (Angstrom)
    1.W         3.872009    3.063270    6.423113
    2.W         6.790124    4.008976    9.856369
    3.W         4.015766    2.672078    9.805997
    4.W         3.581201    6.463225    7.943534
    5.W         7.319224    7.112969    9.213847
    6.W         4.387232    8.130783   10.745824
    7.O         5.742685    3.087000    8.630901
    8.O         7.700541    5.230388    8.733237
    9.O         3.510740    2.066968    7.980650
   10.O         3.970207    4.887567    6.809736
   11.O         1.876929    5.715493    8.336233
   12.O         7.350702    7.827756    7.630764
   13.O         4.392476    6.772968   11.861458
   14.O         6.157020    8.392609   10.170194
   15.O         6.799659    5.690429   10.990508
   16.O         5.302828    2.523529    5.585020
   17.O         3.885580    9.540612   11.630602
   18.O         5.168959    6.246702    8.813499
   19.O         3.151323    7.837232    9.378375
   20.O         2.526228    2.795906    5.351524
   21.O         8.024359    2.938292   10.412106
   22.O         2.621033    3.722729   10.025156
   23.O         5.248756    3.585244   10.992267
   24.O         8.845424    7.566212    9.908728
   25.O         3.581624    7.627024    6.667748
   26.O         3.732354    1.199547   10.677255
   27.H         5.932522    5.867808   11.451895
   28.H         1.934940    4.992953    9.031687
 <Sep08-2020> <16:11:00>  >>>> CORORT
 <Sep08-2020> <16:11:00>  >>>> CLSMAT
 <Sep08-2020> <16:11:00>  >>>> ORTHON
 <Sep08-2020> <16:11:00>  >>>> GENPT
 <Sep08-2020> <16:11:00>  Block Length= 128
 <Sep08-2020> <16:11:00>  >>>> PTBAS
 <Sep08-2020> <16:11:04>  combining surface points...
 <Sep08-2020> <16:11:04>  combining surface points...
 <Sep08-2020> <16:11:04>  combining surface points...
 <Sep08-2020> <16:11:04>  >>>> CYCLE
 <Sep08-2020> <16:11:09>              |Error|         MaxErr       Wt(A-DIIS)
 <Sep08-2020> <16:11:09>      1      0.22533300      0.06176275
 <Sep08-2020> <16:11:12>      2      0.23429629      0.02677860    100.0
 <Sep08-2020> <16:11:16>      3      0.07104140      0.00773229    100.0
 <Sep08-2020> <16:11:19>      4      0.07986918      0.01061309    100.0
 <Sep08-2020> <16:11:22>      5      0.30314679      0.03663266    100.0
 <Sep08-2020> <16:11:25>      6      0.09427018      0.01187775    100.0
 <Sep08-2020> <16:11:28>      7      0.03886544      0.00491331      4.0
 <Sep08-2020> <16:11:32>      8      0.00917774      0.00133775      0.3
 <Sep08-2020> <16:11:35>      9      0.00400299      0.00051895      0.0
 <Sep08-2020> <16:11:38>     10      0.00237919      0.00026446      0.0
 <Sep08-2020> <16:11:41>     11      0.00050718      0.00005688      0.0
 <Sep08-2020> <16:11:44>     12      0.00032965      0.00003349      0.0
 <Sep08-2020> <16:11:47>     13      0.00013874      0.00001821      0.0
 <Sep08-2020> <16:11:50>     14      0.00006821      0.00000867      0.0
 <Sep08-2020> <16:11:53>     15      0.00003670      0.00000414      0.0
 <Sep08-2020> <16:11:56>     16      0.00001545      0.00000152      0.0
 <Sep08-2020> <16:11:59>     17      0.00001050      0.00000105      0.0
 <Sep08-2020> <16:12:02>     18      0.00000659      0.00000085      0.0
 <Sep08-2020> <16:12:03>  SCF converged
 <Sep08-2020> <16:12:05>     19      0.00000303      0.00000036      0.0
 <Sep08-2020> <16:12:07>  >>>> TOTEN
 <Sep08-2020> <16:12:11>  >>>> POPAN
 <Sep08-2020> <16:12:11>  >>>> DEBYE
 <Sep08-2020> <16:12:11>  >>>> ENGRAD
 <Sep08-2020> <16:12:23>  current energy                               -8.67219182 Hartree
 <Sep08-2020> <16:12:23>  energy change                      -0.00001079     0.00100000    T
 <Sep08-2020> <16:12:23>  constrained gradient max            0.00093639     0.00100000    T
 <Sep08-2020> <16:12:23>  constrained gradient rms            0.00024575     0.00066667    T
 <Sep08-2020> <16:12:23>  gradient max                        0.00093639
 <Sep08-2020> <16:12:23>  gradient rms                        0.00024575
 <Sep08-2020> <16:12:23>  cart. step max                      0.00380605     0.01000000    T
 <Sep08-2020> <16:12:23>  cart. step rms                      0.00144081     0.00666667    T
 <Sep08-2020> <16:12:23>  GEOMETRY CONVERGED
 <Sep08-2020> <16:12:23>  Calculating Energy Terms for Final Geometry
  Coordinates in Geometry Cycle 15
    Atom         X           Y           Z   (Angstrom)
    1.W         3.872009    3.063270    6.423113
    2.W         6.790124    4.008976    9.856369
    3.W         4.015766    2.672078    9.805997
    4.W         3.581201    6.463225    7.943534
    5.W         7.319224    7.112969    9.213847
    6.W         4.387232    8.130783   10.745824
    7.O         5.742685    3.087000    8.630901
    8.O         7.700541    5.230388    8.733237
    9.O         3.510740    2.066968    7.980650
   10.O         3.970207    4.887567    6.809736
   11.O         1.876929    5.715493    8.336233
   12.O         7.350702    7.827756    7.630764
   13.O         4.392476    6.772968   11.861458
   14.O         6.157020    8.392609   10.170194
   15.O         6.799659    5.690429   10.990508
   16.O         5.302828    2.523529    5.585020
   17.O         3.885580    9.540612   11.630602
   18.O         5.168959    6.246702    8.813499
   19.O         3.151323    7.837232    9.378375
   20.O         2.526228    2.795906    5.351524
   21.O         8.024359    2.938292   10.412106
   22.O         2.621033    3.722729   10.025156
   23.O         5.248756    3.585244   10.992267
   24.O         8.845424    7.566212    9.908728
   25.O         3.581624    7.627024    6.667748
   26.O         3.732354    1.199547   10.677255
   27.H         5.932522    5.867808   11.451895
   28.H         1.934940    4.992953    9.031687
 <Sep08-2020> <16:12:23>  >>>> CORORT
 <Sep08-2020> <16:12:23>  >>>> CLSMAT
 <Sep08-2020> <16:12:23>  >>>> ORTHON
 <Sep08-2020> <16:12:24>  >>>> GENPT
 <Sep08-2020> <16:12:24>  Block Length= 128
 <Sep08-2020> <16:12:24>  >>>> PTBAS
 <Sep08-2020> <16:12:27>  combining surface points...
 <Sep08-2020> <16:12:27>  combining surface points...
 <Sep08-2020> <16:12:27>  combining surface points...
 <Sep08-2020> <16:12:27>  >>>> CYCLE
 <Sep08-2020> <16:12:32>              |Error|         MaxErr       Wt(A-DIIS)
 <Sep08-2020> <16:12:32>      1      0.06608841      0.00743492
 <Sep08-2020> <16:12:36>      2      0.23429773      0.03435057    100.0
 <Sep08-2020> <16:12:39>      3      0.07121618      0.00718707    100.0
 <Sep08-2020> <16:12:42>      4      0.07790495      0.01293500     12.1
 <Sep08-2020> <16:12:45>      5      0.11268249      0.01681694    100.0
 <Sep08-2020> <16:12:48>      6      0.09563311      0.01318583    100.0
 <Sep08-2020> <16:12:52>      7      0.04023801      0.00642999      5.5
 <Sep08-2020> <16:12:55>      8      0.00964333      0.00092620      0.0
 <Sep08-2020> <16:12:59>      9      0.00366544      0.00058278      0.0
 <Sep08-2020> <16:13:02>     10      0.00267107      0.00034222      0.0
 <Sep08-2020> <16:13:05>     11      0.00057896      0.00007690      0.0
 <Sep08-2020> <16:13:08>     12      0.00035753      0.00005998      0.0
 <Sep08-2020> <16:13:11>     13      0.00032533      0.00004509      0.0
 <Sep08-2020> <16:13:14>     14      0.00006463      0.00000633      0.0
 <Sep08-2020> <16:13:17>     15      0.00003096      0.00000362      0.0
 <Sep08-2020> <16:13:20>     16      0.00001632      0.00000196      0.0
 <Sep08-2020> <16:13:23>     17      0.00000805      0.00000147      0.0
 <Sep08-2020> <16:13:26>     18      0.00000274      0.00000036      0.0
 <Sep08-2020> <16:13:27>  SCF converged
 <Sep08-2020> <16:13:29>     19      0.00000428      0.00000071      0.0
 <Sep08-2020> <16:13:31>  >>>> TOTEN
 <Sep08-2020> <16:13:40>  QTAIM: determining topology...
 <Sep08-2020> <16:13:51>  >>>> POPAN
 <Sep08-2020> <16:13:51>  >>>> DEBYE
 <Sep08-2020> <16:13:51>  >>>> AMETS
 <Sep08-2020> <16:13:51>  >>>> POPUL
 <Sep08-2020> <16:13:51>   Bond Energy          -8.67219182 a.u.
 <Sep08-2020> <16:13:51>   Bond Energy        -235.98234622 eV
 <Sep08-2020> <16:13:51>   Bond Energy       -5441.88       kcal/mol
 <Sep08-2020> <16:13:51>  >>>> ENHESS
 <Sep08-2020> <16:14:09>  === NUCLEUS:     1
 <Sep08-2020> <16:18:11>  === NUCLEUS:     2
 <Sep08-2020> <16:22:03>  === NUCLEUS:     3
 <Sep08-2020> <16:26:00>  === NUCLEUS:     4
 <Sep08-2020> <16:30:02>  === NUCLEUS:     5
 <Sep08-2020> <16:34:04>  === NUCLEUS:     6
 <Sep08-2020> <16:37:56>  === NUCLEUS:     7
 <Sep08-2020> <16:41:33>  === NUCLEUS:     8
 <Sep08-2020> <16:45:15>  === NUCLEUS:     9
 <Sep08-2020> <16:48:57>  === NUCLEUS:    10
 <Sep08-2020> <16:52:39>  === NUCLEUS:    11
 <Sep08-2020> <16:56:27>  === NUCLEUS:    12
 <Sep08-2020> <17:00:14>  === NUCLEUS:    13
 <Sep08-2020> <17:04:00>  === NUCLEUS:    14
 <Sep08-2020> <17:07:38>  === NUCLEUS:    15
 <Sep08-2020> <17:11:20>  === NUCLEUS:    16
 <Sep08-2020> <17:15:01>  === NUCLEUS:    17
 <Sep08-2020> <17:18:43>  === NUCLEUS:    18
 <Sep08-2020> <17:22:25>  === NUCLEUS:    19
 <Sep08-2020> <17:26:02>  === NUCLEUS:    20
 <Sep08-2020> <17:29:44>  === NUCLEUS:    21
 <Sep08-2020> <17:33:21>  === NUCLEUS:    22
 <Sep08-2020> <17:37:04>  === NUCLEUS:    23
 <Sep08-2020> <17:40:40>  === NUCLEUS:    24
 <Sep08-2020> <17:44:32>  === NUCLEUS:    25
 <Sep08-2020> <17:48:18>  === NUCLEUS:    26
 <Sep08-2020> <17:51:55>  === NUCLEUS:    27
 <Sep08-2020> <17:55:32>  === NUCLEUS:    28
 <Sep08-2020> <17:59:04>  >>>> CALC_HESS_PMAT
 <Sep08-2020> <17:59:52>  >>>> CALC_HESS_WMAT
 <Sep08-2020> <18:00:03>  Symmetry  : NOSYM
 <Sep08-2020> <18:00:03>  >>>> FRAGM
 <Sep08-2020> <18:00:03>  Geometry symmetry displacement    1 out of    2
  Coordinates in Geometry Cycle 15
    Atom         X           Y           Z   (Angstrom)
    1.W         3.871905    3.063280    6.422991
    2.W         6.790092    4.008959    9.856512
    3.W         4.015866    2.671807    9.805911
    4.W         3.581112    6.463269    7.943591
    5.W         7.319293    7.112940    9.213902
    6.W         4.387281    8.131082   10.745747
    7.O         5.742830    3.086866    8.630988
    8.O         7.700572    5.230326    8.733386
    9.O         3.510910    2.066844    7.980497
   10.O         3.969940    4.887519    6.809833
   11.O         1.877124    5.715328    8.336991
   12.O         7.350970    7.827697    7.630811
   13.O         4.392338    6.773232   11.861342
   14.O         6.157100    8.392680   10.170132
   15.O         6.799444    5.690492   10.990525
   16.O         5.302777    2.523806    5.584817
   17.O         3.885706    9.540953   11.630503
   18.O         5.169006    6.246831    8.813271
   19.O         3.151479    7.837603    9.378209
   20.O         2.526104    2.795832    5.351442
   21.O         8.024290    2.938357   10.412487
   22.O         2.620835    3.722048   10.025246
   23.O         5.248581    3.585284   10.992236
   24.O         8.845455    7.566104    9.908916
   25.O         3.581129    7.626892    6.667623
   26.O         3.732904    1.199108   10.677019
   27.H         5.932274    5.867916   11.451833
   28.H         1.935431    4.992598    9.032265
 <Sep08-2020> <18:00:03>  >>>> CORORT
 <Sep08-2020> <18:00:04>  >>>> CLSMAT
 <Sep08-2020> <18:00:04>  >>>> ORTHON
 <Sep08-2020> <18:00:04>  >>>> GENPT
 <Sep08-2020> <18:00:04>  Block Length= 128
 <Sep08-2020> <18:00:04>  >>>> PTBAS
 <Sep08-2020> <18:00:07>  combining surface points...
 <Sep08-2020> <18:00:07>  combining surface points...
 <Sep08-2020> <18:00:07>  combining surface points...
 <Sep08-2020> <18:00:07>  >>>> CYCLE
 <Sep08-2020> <18:00:13>              |Error|         MaxErr       Wt(A-DIIS)
 <Sep08-2020> <18:00:13>      1      0.06988812      0.00799279
 <Sep08-2020> <18:00:16>      2      0.23422620      0.02680026    100.0
 <Sep08-2020> <18:00:19>      3      0.07135118      0.00785079    100.0
 <Sep08-2020> <18:00:22>      4      0.07707498      0.01017995      9.3
 <Sep08-2020> <18:00:25>      5      0.10804509      0.01248145    100.0
 <Sep08-2020> <18:00:28>      6      0.10230234      0.01388120    100.0
 <Sep08-2020> <18:00:32>      7      0.03717144      0.00593713      5.0
 <Sep08-2020> <18:00:35>      8      0.00959455      0.00084419      0.0
 <Sep08-2020> <18:00:38>      9      0.00366888      0.00048847      0.0
 <Sep08-2020> <18:00:41>     10      0.00265823      0.00028874      0.0
 <Sep08-2020> <18:00:44>     11      0.00058485      0.00008025      0.0
 <Sep08-2020> <18:00:47>     12      0.00035730      0.00005449      0.0
 <Sep08-2020> <18:00:50>     13      0.00032771      0.00004775      0.0
 <Sep08-2020> <18:00:54>     14      0.00006340      0.00000646      0.0
 <Sep08-2020> <18:00:57>     15      0.00003272      0.00000390      0.0
 <Sep08-2020> <18:00:59>     16      0.00001561      0.00000176      0.0
 <Sep08-2020> <18:01:02>     17      0.00000826      0.00000119      0.0
 <Sep08-2020> <18:01:05>     18      0.00000265      0.00000031      0.0
 <Sep08-2020> <18:01:07>  SCF converged
 <Sep08-2020> <18:01:08>     19      0.00000421      0.00000068      0.0
 <Sep08-2020> <18:01:10>  >>>> TOTEN
 <Sep08-2020> <18:01:12>  >>>> POPAN
 <Sep08-2020> <18:01:12>  >>>> DEBYE
 <Sep08-2020> <18:01:12>  >>>> ENGRAD
 <Sep08-2020> <18:01:24>  Geometry symmetry displacement    2 out of    2
  Coordinates in Geometry Cycle 15
    Atom         X           Y           Z   (Angstrom)
    1.W         3.872114    3.063260    6.423236
    2.W         6.790156    4.008992    9.856226
    3.W         4.015666    2.672349    9.806083
    4.W         3.581289    6.463180    7.943476
    5.W         7.319155    7.112999    9.213792
    6.W         4.387183    8.130484   10.745902
    7.O         5.742540    3.087134    8.630815
    8.O         7.700510    5.230451    8.733088
    9.O         3.510569    2.067093    7.980803
   10.O         3.970474    4.887615    6.809639
   11.O         1.876735    5.715658    8.335475
   12.O         7.350434    7.827815    7.630717
   13.O         4.392615    6.772703   11.861574
   14.O         6.156940    8.392538   10.170256
   15.O         6.799874    5.690365   10.990490
   16.O         5.302878    2.523251    5.585223
   17.O         3.885454    9.540271   11.630701
   18.O         5.168911    6.246572    8.813728
   19.O         3.151167    7.836862    9.378541
   20.O         2.526351    2.795979    5.351606
   21.O         8.024429    2.938228   10.411725
   22.O         2.621231    3.723409   10.025066
   23.O         5.248931    3.585203   10.992298
   24.O         8.845394    7.566321    9.908539
   25.O         3.582119    7.627157    6.667872
   26.O         3.731804    1.199986   10.677491
   27.H         5.932771    5.867699   11.451957
   28.H         1.934449    4.993309    9.031108
 <Sep08-2020> <18:01:24>  >>>> CORORT
 <Sep08-2020> <18:01:24>  >>>> CLSMAT
 <Sep08-2020> <18:01:24>  >>>> ORTHON
 <Sep08-2020> <18:01:24>  >>>> GENPT
 <Sep08-2020> <18:01:25>  Block Length= 128
 <Sep08-2020> <18:01:25>  >>>> PTBAS
 <Sep08-2020> <18:01:28>  combining surface points...
 <Sep08-2020> <18:01:28>  combining surface points...
 <Sep08-2020> <18:01:28>  combining surface points...
 <Sep08-2020> <18:01:28>  >>>> CYCLE
 <Sep08-2020> <18:01:33>              |Error|         MaxErr       Wt(A-DIIS)
 <Sep08-2020> <18:01:33>      1      0.08026009      0.01520010
 <Sep08-2020> <18:01:36>      2      0.23443013      0.02679139    100.0
 <Sep08-2020> <18:01:40>      3      0.07094094      0.00773943    100.0
 <Sep08-2020> <18:01:43>      4      0.07981905      0.01053431    100.0
 <Sep08-2020> <18:01:46>      5      0.30232342      0.03631309    100.0
 <Sep08-2020> <18:01:49>      6      0.09422552      0.01177490    100.0
 <Sep08-2020> <18:01:53>      7      0.03833373      0.00477084      3.8
 <Sep08-2020> <18:01:56>      8      0.00914380      0.00129938      0.3
 <Sep08-2020> <18:01:59>      9      0.00398765      0.00053770      0.0
 <Sep08-2020> <18:02:02>     10      0.00238253      0.00026945      0.0
 <Sep08-2020> <18:02:05>     11      0.00050815      0.00005738      0.0
 <Sep08-2020> <18:02:08>     12      0.00033022      0.00003272      0.0
 <Sep08-2020> <18:02:11>     13      0.00013302      0.00001891      0.0
 <Sep08-2020> <18:02:14>     14      0.00006949      0.00000926      0.0
 <Sep08-2020> <18:02:17>     15      0.00003506      0.00000375      0.0
 <Sep08-2020> <18:02:20>     16      0.00001492      0.00000183      0.0
 <Sep08-2020> <18:02:23>     17      0.00000986      0.00000108      0.0
 <Sep08-2020> <18:02:26>     18      0.00000599      0.00000062      0.0
 <Sep08-2020> <18:02:27>  SCF converged
 <Sep08-2020> <18:02:29>     19      0.00000279      0.00000032      0.0
 <Sep08-2020> <18:02:30>  >>>> TOTEN
 <Sep08-2020> <18:02:32>  >>>> POPAN
 <Sep08-2020> <18:02:32>  >>>> DEBYE
 <Sep08-2020> <18:02:32>  >>>> ENGRAD
 <Sep08-2020> <18:02:45>  Old frequency:    -16.96908, new:     29.75235
 <Sep08-2020> <18:02:45>  NOTE: Some frequencies have been re-calculated by numerical differentiation
 <Sep08-2020> <18:02:45>        Check the text output file for new values!
 <Sep08-2020> <18:02:45>  NORMAL TERMINATION
 <Sep08-2020> <18:02:45>  END
