
 *******************************************************************************
 *                                                                             *
 *  -------------------------------------                                      *
 *   Amsterdam Density Functional  (ADF)         2019                          *
 *  -------------------------------------                                      *
 *                                               r79301 2019-11-09             *
 *                                                                             *
 *                                                                             *
 *                            =====================                            *
 *                            |                   |                            *
 *                            |     D I R A C     |                            *
 *                            |                   |                            *
 *                            =====================                            *
 *                                                                             *
 *                                                                             *
 *   Online information and documentation:  https://www.scm.com/support/       *
 *   E-mail:  support@scm.com   info@scm.com                                   *
 *                                                                             *
 *   Scientific publications using ADF results must be properly referenced     *
 *   See the User Manuals (or the web site) for recommended citations          *
 *   The terms and conditions of the End User License Agreement apply to       *
 *   the use of ADF, https://www.scm.com/license-terms/                        *
 *                                                                             *
 **********************  x86_64_linux_intel / intelmpi  ************************
 
 
 
  
 DIRAC 2019  RunTime: Sep08-2020 13:39:41  Nodes: 1  Procs: 1

 Temporary files are created in /scratch/kid_0.299254328 (0x58465342)

1
 HYDROGEN ATOM RELATIVISTIC, Point Nuc, A and c from libtc   
 N J RN H ZN XION ANUC CLIGHT
 5000    1100.00000000197.36710137  1.00000000  0.00000000    1.007825  0.1370360E+03
  PH   PHI     EPS        DEL        DELRVR
  0.30  0.30     2500.00  0.00001000  0.00001000
 IDIRC  NC1  NDEBU NPRIN  IPUN IRCOR IWCOR
   1   300     0     0     0     0     0
   XALPHA      XLATTER      RNUC
  0.70000000  0.00000000  0.00000000 Point Charge
   XN   XL   XJ      XE          XZ      XDELL
  1.0  0.0  0.5      -1.000       1.000     0.00000
 ICORP=  0  NPCL=  0  DEMP=0.00  PEPS=0.000000
 R(1)=  0.1000000E-08 D=  0.1005080E+01 RNUC=  0.0000000E+00
 converged at cycle   32  DENSITY AVERAGING    0.2400
  MAXIMUM ERROR IN R.V(R) IS   0.79874357E-05
 Q,EY,EV,EZ,ESUM,ETOT,RHO  0.100000E+01 -0.266614E+00 -0.619969E+00 -0.910779E+00 -0.203940E+00 -0.415998E+00  0.337036E-17


 DIRAC CALCULATION
1                    HYDROGEN ATOM RELATIVISTIC, Point Nuc, A and c from libtc


 EXCHANGE COEFFICIENT=  0.7000000           TAIL CORRECTION=  0.           NUCLEAR RADIUS=  0.000E+00
0                       ORBITAL    N    L    J     ELECTRONS     EIGENVALUE                DELTA OF EIGENV.

                          1S1/2  1.0  0.0  0.5     1.000       -0.2039397E+00                 0.2720093E-06


                                        NUCLEAR CHARGE=    1.000000
                            INTEGRAL OF CHARGE DENSITY=    1.000000
                           SUM OF THE ORBITAL ENERGIES=     -0.2039
                                          TOTAL ENERGY=     -0.4160
                                        KINETIC ENERGY=      0.4160
                             NUCLEAR ATTRACTION ENERGY=     -0.9108
                             ELECTRON REPULSION ENERGY=      0.2787
                                       EXCHANGE ENERGY=     -0.2000

 *******************************************************************************

                             D I R A C   E X I T
 NORMAL TERMINATION



 =================
 Timing Statistics
 =================
  
 Total Used :                     CPU=        0.06      System=        0.00     Elapsed=        0.07

 Calls  Section                     ( Mean, Percentage )
 ---------------------------------------------------------------------------------------------------
     2  ><      ................      0.00    0.00             0.00    0.00             0.00    0.01
     1  EXIT PROCEDURE .........      0.06  100.00             0.00    0.00             0.07   99.99


 Currently Open Files (EXIT00)
 ====================

 Unit    Access Format  Status   Type       Ident (file)
 -------------------------------------------------------
   3      SEQ    FORM   TRANSP  NORMAL      LOGFILE
                                          ( logfile )
 
Create H   file=TZP-H
XC
  GGA PBE
End
relativistic ZORA
Corepotentials t12.rel
End

 *******************************************************************************
 *                                                                             *
 *  -------------------------------------                                      *
 *   Amsterdam Density Functional  (ADF)         2019                          *
 *  -------------------------------------                                      *
 *                                               r79301 2019-11-09             *
 *                                                                             *
 *                                                                             *
 *                              =================                              *
 *                              |               |                              *
 *                              |     A D F     |                              *
 *                              |               |                              *
 *                              =================                              *
 *                                                                             *
 *                                                                             *
 *   Online information and documentation:  https://www.scm.com/support/       *
 *   E-mail:  support@scm.com   info@scm.com                                   *
 *                                                                             *
 *   Scientific publications using ADF results must be properly referenced     *
 *   See the User Manuals (or the web site) for recommended citations          *
 *   The terms and conditions of the End User License Agreement apply to       *
 *   the use of ADF, https://www.scm.com/license-terms/                        *
 *                                                                             *
 **********************  x86_64_linux_intel / intelmpi  ************************
 
 
 
  
 ADF 2019  RunTime: Sep08-2020 13:39:42  Nodes: 1  Procs: 1

 Temporary files are created in /scratch/kid_0.1959548776 (0x58465342)

 Hydrogen (TZP)



 ===========================
 A T T A C H E D   F I L E S
 ===========================
  
 CREATE - Data File:    TZP-H
                        Hydrogen (TZP)
 Core Potentials:
         file : t12.rel



 ===============================
 M O D E L   P A R A M E T E R S
 ===============================
  
 DENSITY FUNCTIONAL POTENTIAL (scf)
    LDA:                               PW92                                    == Not Default ==
    Gradient Corrections:              PBEc PBEx                               == Not Default ==

 SPIN  (restricted / unrestr.)
    Molecule:                          Restricted                               

 OTHER ASPECTS
    Relativistic Corrections:          scalar (ZORA,MAPA)                      == Not Default ==

    Nuclear Charge Density Model:      Point Charge Nuclei                      
    Core Treatment:                    Frozen Orbital(s)                        

    Hyperfine or Zeeman Interaction:   ---                                      



 =====================================
 S Y M M E T R Y ,   E L E C T R O N S
 =====================================
  
 Symmetry: ATOM

 Irreducible Representations, including subspecies
 -------------------------------------------------
 S
 P:x  P:y  P:z
 D:z2  D:x2-y2  D:xy  D:xz  D:yz
 F:z3  F:z  F:xyz  F:z2x  F:z2y  F:x  F:y


 Configuration of Valence Electrons
 ==================================

          Occupation Numbers
          -------------------------------------------------
 S        1
 P        0
 D        0
 F        0
          -------------------------------------------------

 Total:   1

 Net Charge: 0 (Nuclei minus Electrons)

 Preset values for MO occupations will be applied through SCF cycle no. 1000000
 Thereafter, the program will assign electrons to MOs that are spatially
 similar to the occupied MOs in a "reference" cycle ("KeepOrbitals").
 The reference cycle is always the PREVIOUS cycle: it will evolve with
 the SCF procedure.



 ================================
 (Slater-type)  F U N C T I O N S  ***  (Basis and Fit)  ***
 ================================
  

 Atom Type    1  (H)
 ==============

 Valence Basis Sets:   4
 -----------------------
   1 S    0.690000
   1 S    0.920000
   1 S    1.580000
   2 P    1.250000


 BAS: List of all Elementary Cartesian Basis Functions
 =====================================================

 The numbering in the list below (to the right of the function characteristics) is referred
 to in print-outs of MO eigenvectors and Mulliken populations in the BAS representation
 (as contrasted to the SFO representation).

 Notes:
 1. The functions are characterized by a polynomial prefactor (powers of x,y,z and r) and
    an exponential decay factor alpha.
 2. Since the basis sets are specific for an atom TYPE, the individual functions occur on
    all atoms of that type.
 3. The word 'Core' in the left margin signals that it is a Core Function (CF) : not a
    degree of freedom in the valence set, but only used to ensure orthogonalization of
    the other valence basis functions on the frozen Core Orbitals.


 (power of) X  Y  Z  R     Alpha  on Atom
            ==========     =====     ==========

 H                                    1
                                  ---------------------------------------------------------------------------
            0  0  0  0     0.690      1
            0  0  0  0     0.920      2
            0  0  0  0     1.580      3
            1  0  0  0     1.250      4
            0  1  0  0     1.250      5
            0  0  1  0     1.250      6

 Total number of charge fitting functions (nprimf)        50
 Total number of Cartesian basis functions (naos)          6
 Total number of Cartesian core functions  (ncos)          0



 BAS: List of all Elementary Cartesian Basis Functions
 =====================================================

 The numbering in the list below (to the right of the function characteristics) is referred
 to in print-outs of MO eigenvectors and Mulliken populations in the BAS representation
 (as contrasted to the SFO representation).

 Notes:
 1. The functions are characterized by a polynomial prefactor (powers of x,y,z and r) and
    an exponential decay factor alpha.
 2. Since the basis sets are specific for an atom TYPE, the individual functions occur on
    all atoms of that type.
 3. The word 'Core' in the left margin signals that it is a Core Function (CF) : not a
    degree of freedom in the valence set, but only used to ensure orthogonalization of
    the other valence basis functions on the frozen Core Orbitals.


 (power of) X  Y  Z  R     Alpha  on Atom
            ==========     =====     ==========

 H                                    1
                                  ---------------------------------------------------------------------------
            0  0  0  0     0.690      1
            0  0  0  0     0.920      2
            0  0  0  0     1.580      3
            1  0  0  0     1.250      4
            0  1  0  0     1.250      5
            0  0  1  0     1.250      6
1
 ***************************************************************************************************



                                              ***********************
                                              *  T E C H N I C A L  *
                                              ***********************
  



 =============================================================
 P A R A L L E L I Z A T I O N  and  V E C T O R I Z A T I O N
 =============================================================
  
 Nr of parallel processes:                                1
 Maximum vector length in NumInt loops:                 128



 =====================
 S C F   U P D A T E S
 =====================
  
 Max. nr. of cycles:                               300
 Convergence criterion:                              0.0000000100
   secondary criterion:                              0.0000000100

 Mix parameter (when DIIS does not apply):           0.2000000000
 Special mix parameter for the first cycle:          1.0000000000
 Mixed ADIIS+SDIIS will be used                  
    Max number of expansion vectors:                10
    Pure ADIIS when Max([F,P]) is above              0.1000000000
    Pure SDIIS when Max([F,P]) is below              0.0010000000
 Automatic ElectronSmearing (in case of problematic SCF convergence) disabled



 =================
 P R E C I S I O N  ***  (General: NumInt, NeglectFunctionTails, ...)  ***
 =================
  

 NumInt:           Target precision:                12.0000000000
 -------           Initial precision:               10.0000000000
                   Min. precision (optimization):   10.0000000000

 Neglect Functions:          Basis functions:        0.1000000000E-13
 ------------------          Fit functions:          0.1000000000E-13



 ===========================
 L I N E A R   S C A L I N G
 ===========================
  

 Cut-off radii density fit:                        0.1000000000E-97
 Overlap cut-off criterion AO matrix elements:     0.1000000000E-97
 Cut-offs for Coulomb potential and fitted density:0.1000000000E-97
 Cut-off criterion for Coulomb multipole terms:    0.1000000000E-97
 Progressive Convergence parameter:                 0.000000000    
1
 ***************************************************************************************************



                                            ***************************
                                            *  C O M P U T A T I O N  *
                                            ***************************
  

 Number of elements of the density matrix on this node (used, total):        21        21



 ===========================================
 Numerical Integration : Fuzzy Cells (Becke)
 ===========================================
  
 Becke grid quality: VERYGOOD       
  
 Lebedev angular grid order:             min:  13 max:  41
 Nr. of radial points:                   min:  64 max:  64

 Total nr. of points:         64
 Nr. of blocks:                1
 Block length:                64
 Nr. of dummy points:          0


 Test of Precision of the Numerical Integration Grid
 ===================================================

 Integral of the Total Core Density:                   0.00000000000000



 ========================
 Density Fitting (zlmFit)
 ========================
  
 ZlmFit Fit Quality: VERYGOOD       
  
 Max L-expansion:                        min:   0 max:   0
 Nr. of radial interpolation points:     min: 120 max: 120



 =====
 S C F  ***  ScaSCF  ***
 =====
  

 CYCLE    1
 SCF Error: norm([F,P])=      0.000000000000, max([F,P])=      0.000000000000
 orbitals (Q,E):
 ---------------
 S :1...3            ( 1.00    -0.5000)  ( 0.00    -0.0900)  ( 0.00     1.2936)
 P :1...1            ( 0.00     0.1562)

 CYCLE    2
 SCF Error: norm([F,P])=      0.031537872292, max([F,P])=      0.030110494752
 orbitals (Q,E):
 ---------------
 S :1...2            ( 1.00    -0.2218)  ( 0.00     0.1019)
 P :1...1            ( 0.00     0.4189)

 CYCLE    3
  SDIIS (wt  0.000):  0.1996  0.8004
 A-DIIS (wt  1.000):  0.0000  1.0000
  DIIS coefficients:  0.0000  1.0000
 SCF Error: norm([F,P])=      0.008617989401, max([F,P])=      0.008343029399
 orbitals (Q,E):
 ---------------
 S :1...2            ( 1.00    -0.2422)  ( 0.00     0.0889)
 P :1...1            ( 0.00     0.4024)

 CYCLE    4
  SDIIS (wt  0.993):  0.1666  0.8334
 A-DIIS (wt  0.007):  0.0000  1.0000
  DIIS coefficients:  0.1654  0.8346
 SCF Error: norm([F,P])=      0.001732350026, max([F,P])=      0.001718616814
 orbitals (Q,E):
 ---------------
 S :1...2            ( 1.00    -0.2385)  ( 0.00     0.0908)
 P :1...1            ( 0.00     0.4054)

 CYCLE    5
  SDIIS (wt  1.000):  0.0236  0.9764
  DIIS coefficients:  0.0236  0.9764
 SCF Error: norm([F,P])=      0.000043673449, max([F,P])=      0.000039769875
 orbitals (Q,E):
 ---------------
 S :1...2            ( 1.00    -0.2386)  ( 0.00     0.0908)
 P :1...1            ( 0.00     0.4054)

 CYCLE    6
  SDIIS (wt  1.000): -0.0577  1.0577
  DIIS coefficients: -0.0577  1.0577
 SCF Error: norm([F,P])=      0.000002383805, max([F,P])=      0.000002158128
 orbitals (Q,E):
 ---------------
 S :1...2            ( 1.00    -0.2386)  ( 0.00     0.0908)
 P :1...1            ( 0.00     0.4054)

 CYCLE    7
  SDIIS (wt  1.000): -0.0032  1.0032
  DIIS coefficients: -0.0032  1.0032
 SCF Error: norm([F,P])=      0.000000007721, max([F,P])=      0.000000007228
 orbitals (Q,E):
 ---------------
 S :1...2            ( 1.00    -0.2386)  ( 0.00     0.0908)
 P :1...1            ( 0.00     0.4054)

 SCF CONVERGED

 CYCLE    8
1
 ***************************************************************************************************



                                                *******************
                                                *  R E S U L T S  *
                                                *******************
  
 *** Using FIT density in Focky
  SDIIS (wt  1.000):  0.0192  0.9808
  DIIS coefficients:  0.0192  0.9808
 SCF Error: norm([F,P])=      0.000000000151, max([F,P])=      0.000000000141

 Scaled ZORA Orbital Energies, per Irrep and Spin:
 =================================================
                        Occup              E (au)              E (eV)       Diff (eV) with prev. cycle
                        -----      --------------------        ------       --------------------------
 S
               1        1.000     -0.23861775226993E+00        -6.493               7.43E-09
               2        0.000      0.90791701709251E-01         2.471
               3        0.000      0.15217530108908E+01        41.409
 P
               1        0.000      0.40537978060393E+00        11.031


 Partially Occupied:
               1 S                -0.23861775226993E+00
  
 LUMO :        2 S                 0.90791701709251E-01
  


 Orbital Energies, all Irreps
 ========================================

 Irrep        no.  (spin)   Occup              E (au)                E (eV)
 ---------------------------------------------------------------------------
 S             1             1.00       -0.23861775226993E+00        -6.4931
 S             2             0.00        0.90791701709251E-01         2.4706
 P             1             0.00        0.40537978060393E+00        11.0309
 S             3             0.00        0.15217530108908E+01        41.4090


 All Electron Calculation, thus no Orbital Energies of the Core Orbitals are calculated



 =======================================
 M U L L I K E N   P O P U L A T I O N S
 =======================================
  
 The survey below gives for each atom:
 a) the total charge (Z minus electrons)
 b) the net spin polarization (nr of electrons spin-A minus spin-B)
 c) for each spin the atomic electron valence density (integrated) per L-value.

 Atom              Charge    Spin density          S         P         D         F
 ----              ------    ------------       ------    ------    ------    ------
 1 H              -0.0000                       1.0000    0.0000    0.0000    0.0000

 Populations of individual BAS functions
 ----------------------------------------
 1 H            0.2104  0.6788  0.1107  0.0000  0.0000  0.0000

 Gross Charges per Atom (Z minus electrons)
 ==========================================
            -0.0000
 Net Total: -0.00000000



 =======================================================================
 Electrostatic potential at the Nuclei due to electrons and other nuclei
 =======================================================================
  
         Atom                  Potential
         ----                  ---------
     1)   H                   0.94468022
 
 
 ========================
 No memory problems found
 ========================
 
 Maximum number of active allocate calls:         306
 
 *******************************************************************************

                             A D F   E X I T
 NORMAL TERMINATION



 =================
 Timing Statistics
 =================
  
 Total Used :                     CPU=        0.33      System=        0.02     Elapsed=        0.38

 Calls  Section                     ( Mean, Percentage )
 ---------------------------------------------------------------------------------------------------
     3  ><      ................      0.00    0.00             0.00    0.00             0.00    1.14
     1  INIT    ................      0.07   20.48             0.01   40.00             0.08   20.76
     1  GEOMET  ................      0.02    6.02             0.00    0.00             0.02    6.10
     1  INPUTA  ................      0.00    1.20             0.00    0.00             0.00    0.88
     1  MAINSY  ................      0.01    2.41             0.00    0.00             0.01    3.27
     1  SYMFIT  ................      0.00    0.00             0.00    0.00             0.00    0.42
     1  CORORT  ................      0.00    1.21             0.00    0.00             0.00    0.32
     1  SYMORB  ................      0.00    0.00             0.00    0.00             0.00    0.19
     1  CLSMAT  ................      0.00    1.20             0.00    0.00             0.01    1.35
     1  ORTHON  ................      0.00    1.20             0.00    0.00             0.00    1.22
     1  GENPT   ................      0.02    4.82             0.00    0.00             0.01    3.26
     1  PTBAS   ................      0.00    1.20             0.00    0.00             0.01    1.34
     8  FOCKY   ................      0.02   44.58             0.00   60.00             0.02   44.30
     8  FOCKTR  ................      0.00    6.03             0.00    0.00             0.00    1.23
     8  SDIIS   ................      0.00    1.20             0.00    0.00             0.00    5.60
     1  COREPS  ................      0.01    3.61             0.00    0.00             0.01    3.61
     1  POPAN   ................      0.00    1.20             0.00    0.00             0.00    1.21
     1  DEBYE   ................      0.00    1.20             0.00    0.00             0.00    0.48
     1  EXIT PROCEDURE .........      0.01    2.41             0.00    0.00             0.01    3.33


 Currently Open Files (EXIT00)
 ====================

 Unit    Access Format  Status   Type       Ident (file)
 -------------------------------------------------------
   3      SEQ    FORM   TRANSP  NORMAL      LOGFILE
                                          ( logfile )

 ***************************************************************************************************
 (LOGFILE)
 <Sep08-2020> <13:39:41>  DIRAC 2019  RunTime: Sep08-2020 13:39:41  Nodes: 1  Procs: 1
 <Sep08-2020> <13:39:42>  NORMAL TERMINATION
 <Sep08-2020> <13:39:42>  END
 <Sep08-2020> <13:39:42>  ADF 2019  RunTime: Sep08-2020 13:39:42  Nodes: 1  Procs: 1
 <Sep08-2020> <13:39:42>  Hydrogen (TZP)
 <Sep08-2020> <13:39:42>  RunType   : CREATE
 <Sep08-2020> <13:39:42>  Net Charge: 0 (Nuclei minus Electrons)
 <Sep08-2020> <13:39:42>  Symmetry  : ATOM
  Coordinates
    Atom         X           Y           Z   (Angstrom)
    1.H         0.000000    0.000000    0.000000
 <Sep08-2020> <13:39:42>  >>>> CORORT
 <Sep08-2020> <13:39:42>  >>>> CLSMAT
 <Sep08-2020> <13:39:42>  >>>> ORTHON
 <Sep08-2020> <13:39:42>  >>>> GENPT
 <Sep08-2020> <13:39:42>  Block Length=  64
 <Sep08-2020> <13:39:42>  >>>> PTBAS
 <Sep08-2020> <13:39:42>  >>>> CYCLE
 <Sep08-2020> <13:39:42>              |Error|         MaxErr       Wt(A-DIIS)
 <Sep08-2020> <13:39:42>      1      0.00000000      0.00000000
 <Sep08-2020> <13:39:42>      2      0.03153787      0.03011049
 <Sep08-2020> <13:39:42>      3      0.00861799      0.00834303    100.0
 <Sep08-2020> <13:39:42>      4      0.00173235      0.00171862      0.7
 <Sep08-2020> <13:39:42>      5      0.00004367      0.00003977      0.0
 <Sep08-2020> <13:39:42>      6      0.00000238      0.00000216      0.0
 <Sep08-2020> <13:39:42>      7      0.00000001      0.00000001      0.0
 <Sep08-2020> <13:39:42>  SCF converged
 <Sep08-2020> <13:39:42>      8      0.00000000      0.00000000      0.0
 <Sep08-2020> <13:39:42>  >>>> POPAN
 <Sep08-2020> <13:39:42>  >>>> DEBYE
 <Sep08-2020> <13:39:42>  NORMAL TERMINATION
 <Sep08-2020> <13:39:42>  END

 *******************************************************************************
 *                                                                             *
 *  -------------------------------------                                      *
 *   Amsterdam Density Functional  (ADF)         2019                          *
 *  -------------------------------------                                      *
 *                                               r79301 2019-11-09             *
 *                                                                             *
 *                                                                             *
 *                            =====================                            *
 *                            |                   |                            *
 *                            |     D I R A C     |                            *
 *                            |                   |                            *
 *                            =====================                            *
 *                                                                             *
 *                                                                             *
 *   Online information and documentation:  https://www.scm.com/support/       *
 *   E-mail:  support@scm.com   info@scm.com                                   *
 *                                                                             *
 *   Scientific publications using ADF results must be properly referenced     *
 *   See the User Manuals (or the web site) for recommended citations          *
 *   The terms and conditions of the End User License Agreement apply to       *
 *   the use of ADF, https://www.scm.com/license-terms/                        *
 *                                                                             *
 **********************  x86_64_linux_intel / intelmpi  ************************
 
 
 
  
 DIRAC 2019  RunTime: Sep08-2020 13:39:42  Nodes: 1  Procs: 1

 Temporary files are created in /scratch/kid_0.1847210829 (0x58465342)

1
 OXYGEN ATOM 1s CORE RELATIVISTIC, Point Nuc, A and c from li
 N J RN H ZN XION ANUC CLIGHT
 5000    4100.00000000197.36710137  8.00000000  0.00000000   15.994914  0.1370360E+03
  PH   PHI     EPS        DEL        DELRVR
  0.30  0.30     2500.00  0.00001000  0.00001000
 IDIRC  NC1  NDEBU NPRIN  IPUN IRCOR IWCOR
   1   300     0     0     0     0     1
   XALPHA      XLATTER      RNUC
  0.70000000  0.00000000  0.00000000 Point Charge
   XN   XL   XJ      XE          XZ      XDELL
  1.0  0.0  0.5      -5.000       2.000     0.00000
  2.0  0.0  0.5      -1.000       2.000     0.00000
  2.0  1.0  0.5      -1.000       2.000     0.00000
  2.0  1.0  1.5      -1.000       2.000     0.00000
 ICORP=  0  NPCL=  0  DEMP=0.00  PEPS=0.000000
 R(1)=  0.1000000E-08 D=  0.1005080E+01 RNUC=  0.0000000E+00
 converged at cycle   28  DENSITY AVERAGING    0.2400
  MAXIMUM ERROR IN R.V(R) IS   0.81125670E-05
 Q,EY,EV,EZ,ESUM,ETOT,RHO  0.800000E+01 -0.101247E+02 -0.114961E+03 -0.177573E+03 -0.405053E+02 -0.743427E+02  0.414766E-14


 DIRAC CALCULATION
1                    OXYGEN ATOM 1s CORE RELATIVISTIC, Point Nuc, A and c from libtc


 EXCHANGE COEFFICIENT=  0.7000000           TAIL CORRECTION=  0.           NUCLEAR RADIUS=  0.000E+00
0                       ORBITAL    N    L    J     ELECTRONS     EIGENVALUE                DELTA OF EIGENV.

                          1S1/2  1.0  0.0  0.5     2.000       -0.1880014E+02                 0.7264358E-06
                          2S1/2  2.0  0.0  0.5     2.000       -0.8412236E+00                 0.5932752E-05
                          2P1/2  2.0  1.0  0.5     2.000       -0.3063203E+00                 0.5998471E-05
                          2P3/2  2.0  1.0  1.5     2.000       -0.3049609E+00                 0.5986971E-05


                                        NUCLEAR CHARGE=    8.000000
                            INTEGRAL OF CHARGE DENSITY=    8.000000
                           SUM OF THE ORBITAL ENERGIES=    -40.5053
                                          TOTAL ENERGY=    -74.3427
                                        KINETIC ENERGY=     74.4552
                             NUCLEAR ATTRACTION ENERGY=   -177.5730
                             ELECTRON REPULSION ENERGY=     36.3686
                                       EXCHANGE ENERGY=     -7.5935

 *******************************************************************************

                             D I R A C   E X I T
 NORMAL TERMINATION



 =================
 Timing Statistics
 =================
  
 Total Used :                     CPU=        0.10      System=        0.00     Elapsed=        0.12

 Calls  Section                     ( Mean, Percentage )
 ---------------------------------------------------------------------------------------------------
     2  ><      ................      0.00    0.00             0.00    0.00             0.00    0.01
     1  EXIT PROCEDURE .........      0.10  100.00             0.00    0.00             0.12   99.99


 Currently Open Files (EXIT00)
 ====================

 Unit    Access Format  Status   Type       Ident (file)
 -------------------------------------------------------
   3      SEQ    FORM   TRANSP  NORMAL      LOGFILE
                                          ( logfile )
 
Create O   file=TZP-O.1s
XC
  GGA PBE
End
relativistic ZORA
Corepotentials t12.rel
End

 *******************************************************************************
 *                                                                             *
 *  -------------------------------------                                      *
 *   Amsterdam Density Functional  (ADF)         2019                          *
 *  -------------------------------------                                      *
 *                                               r79301 2019-11-09             *
 *                                                                             *
 *                                                                             *
 *                              =================                              *
 *                              |               |                              *
 *                              |     A D F     |                              *
 *                              |               |                              *
 *                              =================                              *
 *                                                                             *
 *                                                                             *
 *   Online information and documentation:  https://www.scm.com/support/       *
 *   E-mail:  support@scm.com   info@scm.com                                   *
 *                                                                             *
 *   Scientific publications using ADF results must be properly referenced     *
 *   See the User Manuals (or the web site) for recommended citations          *
 *   The terms and conditions of the End User License Agreement apply to       *
 *   the use of ADF, https://www.scm.com/license-terms/                        *
 *                                                                             *
 **********************  x86_64_linux_intel / intelmpi  ************************
 
 
 
  
 ADF 2019  RunTime: Sep08-2020 13:39:42  Nodes: 1  Procs: 1

 Temporary files are created in /scratch/kid_0.2012498229 (0x58465342)

 Oxygen (TZP, 1s frozen)



 ===========================
 A T T A C H E D   F I L E S
 ===========================
  
 CREATE - Data File:    TZP-O.1s
                        Oxygen (TZP, 1s frozen)
 Core Potentials:
         file : t12.rel



 ===============================
 M O D E L   P A R A M E T E R S
 ===============================
  
 DENSITY FUNCTIONAL POTENTIAL (scf)
    LDA:                               PW92                                    == Not Default ==
    Gradient Corrections:              PBEc PBEx                               == Not Default ==

 SPIN  (restricted / unrestr.)
    Molecule:                          Restricted                               

 OTHER ASPECTS
    Relativistic Corrections:          scalar (ZORA,MAPA)                      == Not Default ==

    Nuclear Charge Density Model:      Point Charge Nuclei                      
    Core Treatment:                    Frozen Orbital(s)                        

    Hyperfine or Zeeman Interaction:   ---                                      



 =====================================
 S Y M M E T R Y ,   E L E C T R O N S
 =====================================
  
 Symmetry: ATOM

 Irreducible Representations, including subspecies
 -------------------------------------------------
 S
 P:x  P:y  P:z
 D:z2  D:x2-y2  D:xy  D:xz  D:yz
 F:z3  F:z  F:xyz  F:z2x  F:z2y  F:x  F:y


 Configuration of Valence Electrons
 ==================================

          Occupation Numbers
          -------------------------------------------------
 S        2
 P        4
 D        0
 F        0
          -------------------------------------------------

 Total:   6

 Net Charge: 0 (Nuclei minus Electrons)

 Preset values for MO occupations will be applied through SCF cycle no. 1000000
 Thereafter, the program will assign electrons to MOs that are spatially
 similar to the occupied MOs in a "reference" cycle ("KeepOrbitals").
 The reference cycle is always the PREVIOUS cycle: it will evolve with
 the SCF procedure.



 ================================
 (Slater-type)  F U N C T I O N S  ***  (Basis and Fit)  ***
 ================================
  

 Atom Type    1  (O)
 ==============

 Valence Basis Sets:   8
 -----------------------
   1 S    7.360000
   2 S    1.720000
   2 S    2.880000
   2 S    7.580000
   2 P    1.120000
   2 P    2.080000
   2 P    4.080000
   3 D    2.000000

 Frozen Core Shells
 ------------------
    S:  1


 BAS: List of all Elementary Cartesian Basis Functions
 =====================================================

 The numbering in the list below (to the right of the function characteristics) is referred
 to in print-outs of MO eigenvectors and Mulliken populations in the BAS representation
 (as contrasted to the SFO representation).

 Notes:
 1. The functions are characterized by a polynomial prefactor (powers of x,y,z and r) and
    an exponential decay factor alpha.
 2. Since the basis sets are specific for an atom TYPE, the individual functions occur on
    all atoms of that type.
 3. The word 'Core' in the left margin signals that it is a Core Function (CF) : not a
    degree of freedom in the valence set, but only used to ensure orthogonalization of
    the other valence basis functions on the frozen Core Orbitals.


 (power of) X  Y  Z  R     Alpha  on Atom
            ==========     =====     ==========

 O                                    1
                                  ---------------------------------------------------------------------------
    Core    0  0  0  0     7.360      1
            0  0  0  1     1.720      2
            0  0  0  1     2.880      3
            0  0  0  1     7.580      4
            1  0  0  0     1.120      5
            0  1  0  0     1.120      6
            0  0  1  0     1.120      7
            1  0  0  0     2.080      8
            0  1  0  0     2.080      9
            0  0  1  0     2.080     10
            1  0  0  0     4.080     11
            0  1  0  0     4.080     12
            0  0  1  0     4.080     13
            2  0  0  0     2.000     14
            1  1  0  0     2.000     15
            1  0  1  0     2.000     16
            0  2  0  0     2.000     17
            0  1  1  0     2.000     18
            0  0  2  0     2.000     19

 Total number of charge fitting functions (nprimf)        82
 Total number of Cartesian basis functions (naos)         19
 Total number of Cartesian core functions  (ncos)          1



 BAS: List of all Elementary Cartesian Basis Functions
 =====================================================

 The numbering in the list below (to the right of the function characteristics) is referred
 to in print-outs of MO eigenvectors and Mulliken populations in the BAS representation
 (as contrasted to the SFO representation).

 Notes:
 1. The functions are characterized by a polynomial prefactor (powers of x,y,z and r) and
    an exponential decay factor alpha.
 2. Since the basis sets are specific for an atom TYPE, the individual functions occur on
    all atoms of that type.
 3. The word 'Core' in the left margin signals that it is a Core Function (CF) : not a
    degree of freedom in the valence set, but only used to ensure orthogonalization of
    the other valence basis functions on the frozen Core Orbitals.


 (power of) X  Y  Z  R     Alpha  on Atom
            ==========     =====     ==========

 O                                    1
                                  ---------------------------------------------------------------------------
    Core    0  0  0  0     7.360      1
            0  0  0  1     1.720      2
            0  0  0  1     2.880      3
            0  0  0  1     7.580      4
            1  0  0  0     1.120      5
            0  1  0  0     1.120      6
            0  0  1  0     1.120      7
            1  0  0  0     2.080      8
            0  1  0  0     2.080      9
            0  0  1  0     2.080     10
            1  0  0  0     4.080     11
            0  1  0  0     4.080     12
            0  0  1  0     4.080     13
            2  0  0  0     2.000     14
            1  1  0  0     2.000     15
            1  0  1  0     2.000     16
            0  2  0  0     2.000     17
            0  1  1  0     2.000     18
            0  0  2  0     2.000     19
1
 ***************************************************************************************************



                                              ***********************
                                              *  T E C H N I C A L  *
                                              ***********************
  



 =============================================================
 P A R A L L E L I Z A T I O N  and  V E C T O R I Z A T I O N
 =============================================================
  
 Nr of parallel processes:                                1
 Maximum vector length in NumInt loops:                 128



 =====================
 S C F   U P D A T E S
 =====================
  
 Max. nr. of cycles:                               300
 Convergence criterion:                              0.0000000100
   secondary criterion:                              0.0000000100

 Mix parameter (when DIIS does not apply):           0.2000000000
 Special mix parameter for the first cycle:          1.0000000000
 Mixed ADIIS+SDIIS will be used                  
    Max number of expansion vectors:                10
    Pure ADIIS when Max([F,P]) is above              0.1000000000
    Pure SDIIS when Max([F,P]) is below              0.0010000000
 Automatic ElectronSmearing (in case of problematic SCF convergence) disabled



 =================
 P R E C I S I O N  ***  (General: NumInt, NeglectFunctionTails, ...)  ***
 =================
  

 NumInt:           Target precision:                12.0000000000
 -------           Initial precision:               10.0000000000
                   Min. precision (optimization):   10.0000000000

 Neglect Functions:          Basis functions:        0.1000000000E-13
 ------------------          Fit functions:          0.1000000000E-13



 ===========================
 L I N E A R   S C A L I N G
 ===========================
  

 Cut-off radii density fit:                        0.1000000000E-97
 Overlap cut-off criterion AO matrix elements:     0.1000000000E-97
 Cut-offs for Coulomb potential and fitted density:0.1000000000E-97
 Cut-off criterion for Coulomb multipole terms:    0.1000000000E-97
 Progressive Convergence parameter:                 0.000000000    
1
 ***************************************************************************************************



                                            ***************************
                                            *  C O M P U T A T I O N  *
                                            ***************************
  

 Number of elements of the density matrix on this node (used, total):       190       190



 ===========================================
 Numerical Integration : Fuzzy Cells (Becke)
 ===========================================
  
 Becke grid quality: VERYGOOD       
  
 Lebedev angular grid order:             min:  13 max:  41
 Nr. of radial points:                   min:  68 max:  68

 Total nr. of points:         68
 Nr. of blocks:                1
 Block length:                68
 Nr. of dummy points:          0


 Test of Precision of the Numerical Integration Grid
 ===================================================

 Integral of the Total Core Density:                   1.99999999865610
 Relative Error:                                      -6.720E-10



 ========================
 Density Fitting (zlmFit)
 ========================
  
 ZlmFit Fit Quality: VERYGOOD       
  
 Max L-expansion:                        min:   0 max:   0
 Nr. of radial interpolation points:     min: 140 max: 140



 =====
 S C F  ***  ScaSCF  ***
 =====
  

 CYCLE    1
 SCF Error: norm([F,P])=      0.000000000000, max([F,P])=      0.000000000000
 orbitals (Q,E):
 ---------------
 S :1...3            ( 2.00    -5.3654)  ( 0.00    -2.2073)  ( 0.00    23.6692)
 P :1...3            ( 4.00    -5.0045)  ( 0.00    -2.0150)  ( 0.00    -0.3846)
 D :1...1            ( 0.00    -2.0410)

 CYCLE    2
 SCF Error: norm([F,P])=      4.562993374873, max([F,P])=      2.528971113813
 orbitals (Q,E):
 ---------------
 S :1...2            ( 2.00    -0.1548)  ( 0.00     1.6948)
 P :1...2            ( 4.00     0.1773)  ( 0.00     0.9552)
 D :1...1            ( 0.00     1.4649)

 CYCLE    3
  SDIIS (wt  0.000):  0.3378  0.6622
 A-DIIS (wt  1.000):  0.4814  0.5186
  DIIS coefficients:  0.4814  0.5186
 SCF Error: norm([F,P])=      2.723155250500, max([F,P])=      1.798667049295
 orbitals (Q,E):
 ---------------
 S :1...2            ( 2.00    -1.1093)  ( 0.00     0.7549)
 P :1...2            ( 4.00    -0.5518)  ( 0.00     0.2590)
 D :1...1            ( 0.00     0.8910)

 CYCLE    4
  SDIIS (wt  0.000):  0.0919  0.9081
 A-DIIS (wt  1.000):  0.0000  1.0000
  DIIS coefficients:  0.0000  1.0000
 SCF Error: norm([F,P])=      0.289027138405, max([F,P])=      0.130648623511
 orbitals (Q,E):
 ---------------
 S :1...2            ( 2.00    -0.7707)  ( 0.00     0.9912)
 P :1...2            ( 4.00    -0.2284)  ( 0.00     0.4046)
 D :1...1            ( 0.00     1.1288)

 CYCLE    5
  SDIIS (wt  0.000):  0.0260  0.6740  0.3001
 A-DIIS (wt  1.000):  0.0000  0.5764  0.4236
  DIIS coefficients:  0.0000  0.5764  0.4236
 SCF Error: norm([F,P])=      0.416615089426, max([F,P])=      0.232643669786
 orbitals (Q,E):
 ---------------
 S :1...2            ( 2.00    -0.8764)  ( 0.00     0.9107)
 P :1...2            ( 4.00    -0.3280)  ( 0.00     0.3557)
 D :1...1            ( 0.00     1.0703)

 CYCLE    6
  SDIIS (wt  0.942):  0.0005  0.0237 -0.0203  0.9960
 A-DIIS (wt  0.058):  0.0000  0.0000  0.0000  1.0000
  DIIS coefficients:  0.0005  0.0224 -0.0191  0.9962
 SCF Error: norm([F,P])=      0.013723272809, max([F,P])=      0.006719036732
 orbitals (Q,E):
 ---------------
 S :1...2            ( 2.00    -0.8830)  ( 0.00     0.9058)
 P :1...2            ( 4.00    -0.3343)  ( 0.00     0.3521)
 D :1...1            ( 0.00     1.0657)

 CYCLE    7
  SDIIS (wt  1.000): -0.0000  0.0016  0.0023  0.0424  0.9537
  DIIS coefficients: -0.0000  0.0016  0.0023  0.0424  0.9537
 SCF Error: norm([F,P])=      0.001103645928, max([F,P])=      0.000634039171
 orbitals (Q,E):
 ---------------
 S :1...2            ( 2.00    -0.8827)  ( 0.00     0.9060)
 P :1...2            ( 4.00    -0.3340)  ( 0.00     0.3523)
 D :1...1            ( 0.00     1.0659)

 CYCLE    8
  SDIIS (wt  1.000): -0.0000 -0.0001  0.0000 -0.0032  0.0268  0.9765
  DIIS coefficients: -0.0000 -0.0001  0.0000 -0.0032  0.0268  0.9765
 SCF Error: norm([F,P])=      0.000035919805, max([F,P])=      0.000020263970
 orbitals (Q,E):
 ---------------
 S :1...2            ( 2.00    -0.8827)  ( 0.00     0.9060)
 P :1...2            ( 4.00    -0.3340)  ( 0.00     0.3522)
 D :1...1            ( 0.00     1.0659)

 CYCLE    9
  SDIIS (wt  1.000): -0.0000  0.0008  0.0188  0.9804
  DIIS coefficients: -0.0000  0.0008  0.0188  0.9804
 SCF Error: norm([F,P])=      0.000000326384, max([F,P])=      0.000000183924
 orbitals (Q,E):
 ---------------
 S :1...2            ( 2.00    -0.8827)  ( 0.00     0.9060)
 P :1...2            ( 4.00    -0.3340)  ( 0.00     0.3522)
 D :1...1            ( 0.00     1.0659)

 CYCLE   10
  SDIIS (wt  1.000):  0.0000  0.0003  0.9996
  DIIS coefficients:  0.0000  0.0003  0.9996
 SCF Error: norm([F,P])=      0.000000000559, max([F,P])=      0.000000000306
 orbitals (Q,E):
 ---------------
 S :1...2            ( 2.00    -0.8827)  ( 0.00     0.9060)
 P :1...2            ( 4.00    -0.3340)  ( 0.00     0.3522)
 D :1...1            ( 0.00     1.0659)

 SCF CONVERGED

 CYCLE   11
1
 ***************************************************************************************************



                                                *******************
                                                *  R E S U L T S  *
                                                *******************
  
 *** Using FIT density in Focky
  SDIIS (wt  1.000): -0.0000  0.0143  0.9857
  DIIS coefficients: -0.0000  0.0143  0.9857
 SCF Error: norm([F,P])=      0.000000000010, max([F,P])=      0.000000000006

 Scaled ZORA Orbital Energies, per Irrep and Spin:
 =================================================
                        Occup              E (au)              E (eV)       Diff (eV) with prev. cycle
                        -----      --------------------        ------       --------------------------
 S
               1        2.000     -0.88272313143209E+00       -24.020              -9.28E-11
               2        0.000      0.90601345014671E+00        24.654
               3        0.000      0.29578810816937E+02       804.880
 P
               1        4.000     -0.33400585272070E+00        -9.089              -8.94E-11
               2        0.000      0.35224911365993E+00         9.585
               3        0.000      0.38342927625315E+01       104.336
 D
               1        0.000      0.10658965783141E+01        29.005


 Partially Occupied:
               1 P                -0.33400585272070E+00
  
 HOMO :        1 S                -0.88272313143209E+00
 LUMO :        2 P                 0.35224911365993E+00
  


 Orbital Energies, all Irreps
 ========================================

 Irrep        no.  (spin)   Occup              E (au)                E (eV)
 ---------------------------------------------------------------------------
 S             1             2.00       -0.88272313143209E+00       -24.0201
 P             1             4.00       -0.33400585272070E+00        -9.0888
 P             2             0.00        0.35224911365993E+00         9.5852
 S             2             0.00        0.90601345014671E+00        24.6539
 D             1             0.00        0.10658965783141E+01        29.0045
 P             3             0.00        0.38342927625315E+01       104.3364
 S             3             0.00        0.29578810816937E+02       804.8804


 Scaled ZORA Orbital Energies of the Core Orbitals:
 ==================================================

 (Note that the atoms are grouped by atomtype, see the labels, and may hence NOT be in input order)

 AtomType  Orbital  Atom                   E (au)                        E (eV)
 --------  -------  ----           --------------------        ----------------
 O           1S        1          -0.18925919758629E+02                -515.000



 =======================================
 M U L L I K E N   P O P U L A T I O N S
 =======================================
  
 The survey below gives for each atom:
 a) the total charge (Z minus electrons)
 b) the net spin polarization (nr of electrons spin-A minus spin-B)
 c) for each spin the atomic electron valence density (integrated) per L-value.

 Atom              Charge    Spin density          S         P         D         F
 ----              ------    ------------       ------    ------    ------    ------
 1 O              -0.0000                       2.0000    4.0000    0.0000    0.0000

 Populations of individual BAS functions
 ----------------------------------------
 1 O            0.0005  0.9226  1.0966 -0.0196  0.3346  0.3346  0.3346  0.7512  0.7512  0.7512
                0.2476  0.2476  0.2476  0.0000  0.0000  0.0000  0.0000  0.0000  0.0000

 Gross Charges per Atom (Z minus electrons)
 ==========================================
            -0.0000
 Net Total: -0.00000000



 =======================================================================
 Electrostatic potential at the Nuclei due to electrons and other nuclei
 =======================================================================
  
         Atom                  Potential
         ----                  ---------
     1)   O                  22.20265662
 
 
 ========================
 No memory problems found
 ========================
 
 Maximum number of active allocate calls:         389
 
 *******************************************************************************

                             A D F   E X I T
 NORMAL TERMINATION



 =================
 Timing Statistics
 =================
  
 Total Used :                     CPU=        0.42      System=        0.03     Elapsed=        0.49

 Calls  Section                     ( Mean, Percentage )
 ---------------------------------------------------------------------------------------------------
     3  ><      ................      0.00    0.00             0.00    0.00             0.00    0.82
     1  INIT    ................      0.07   16.19             0.01   25.00             0.08   16.43
     1  GEOMET  ................      0.02    4.76             0.00    0.00             0.02    4.98
     1  INPUTA  ................      0.00    0.95             0.00    0.00             0.00    0.71
     1  MAINSY  ................      0.01    1.90             0.00   12.50             0.01    2.90
     1  SYMFIT  ................      0.00    0.95             0.00    0.00             0.00    0.33
     1  CORORT  ................      0.00    0.00             0.00    0.00             0.00    0.31
     1  SYMORB  ................      0.00    0.00             0.00    0.00             0.00    0.18
     1  CLSMAT  ................      0.00    0.00             0.00    0.00             0.01    1.19
     1  ORTHON  ................      0.00    0.95             0.00   12.50             0.01    1.08
     1  GENPT   ................      0.02    3.81             0.00    0.00             0.01    3.03
     1  PTBAS   ................      0.00    0.00             0.00    0.00             0.01    1.15
    11  FOCKY   ................      0.02   56.19             0.00   37.50             0.02   51.19
    11  FOCKTR  ................      0.00    0.95             0.00    0.00             0.00    1.57
    11  SDIIS   ................      0.00    5.71             0.00    0.00             0.00    6.25
     1  COREPS  ................      0.01    2.86             0.00   12.50             0.02    3.62
     1  POPAN   ................      0.01    1.90             0.00    0.00             0.01    1.12
     1  DEBYE   ................      0.00    0.00             0.00    0.00             0.00    0.39
     1  EXIT PROCEDURE .........      0.01    2.86             0.00    0.00             0.01    2.73


 Currently Open Files (EXIT00)
 ====================

 Unit    Access Format  Status   Type       Ident (file)
 -------------------------------------------------------
   3      SEQ    FORM   TRANSP  NORMAL      LOGFILE
                                          ( logfile )

 ***************************************************************************************************
 (LOGFILE)
 <Sep08-2020> <13:39:41>  DIRAC 2019  RunTime: Sep08-2020 13:39:41  Nodes: 1  Procs: 1
 <Sep08-2020> <13:39:42>  NORMAL TERMINATION
 <Sep08-2020> <13:39:42>  END
 <Sep08-2020> <13:39:42>  ADF 2019  RunTime: Sep08-2020 13:39:42  Nodes: 1  Procs: 1
 <Sep08-2020> <13:39:42>  Hydrogen (TZP)
 <Sep08-2020> <13:39:42>  RunType   : CREATE
 <Sep08-2020> <13:39:42>  Net Charge: 0 (Nuclei minus Electrons)
 <Sep08-2020> <13:39:42>  Symmetry  : ATOM
  Coordinates
    Atom         X           Y           Z   (Angstrom)
    1.H         0.000000    0.000000    0.000000
 <Sep08-2020> <13:39:42>  >>>> CORORT
 <Sep08-2020> <13:39:42>  >>>> CLSMAT
 <Sep08-2020> <13:39:42>  >>>> ORTHON
 <Sep08-2020> <13:39:42>  >>>> GENPT
 <Sep08-2020> <13:39:42>  Block Length=  64
 <Sep08-2020> <13:39:42>  >>>> PTBAS
 <Sep08-2020> <13:39:42>  >>>> CYCLE
 <Sep08-2020> <13:39:42>              |Error|         MaxErr       Wt(A-DIIS)
 <Sep08-2020> <13:39:42>      1      0.00000000      0.00000000
 <Sep08-2020> <13:39:42>      2      0.03153787      0.03011049
 <Sep08-2020> <13:39:42>      3      0.00861799      0.00834303    100.0
 <Sep08-2020> <13:39:42>      4      0.00173235      0.00171862      0.7
 <Sep08-2020> <13:39:42>      5      0.00004367      0.00003977      0.0
 <Sep08-2020> <13:39:42>      6      0.00000238      0.00000216      0.0
 <Sep08-2020> <13:39:42>      7      0.00000001      0.00000001      0.0
 <Sep08-2020> <13:39:42>  SCF converged
 <Sep08-2020> <13:39:42>      8      0.00000000      0.00000000      0.0
 <Sep08-2020> <13:39:42>  >>>> POPAN
 <Sep08-2020> <13:39:42>  >>>> DEBYE
 <Sep08-2020> <13:39:42>  NORMAL TERMINATION
 <Sep08-2020> <13:39:42>  END
 <Sep08-2020> <13:39:42>  DIRAC 2019  RunTime: Sep08-2020 13:39:42  Nodes: 1  Procs: 1
 <Sep08-2020> <13:39:42>  NORMAL TERMINATION
 <Sep08-2020> <13:39:42>  END
 <Sep08-2020> <13:39:42>  ADF 2019  RunTime: Sep08-2020 13:39:42  Nodes: 1  Procs: 1
 <Sep08-2020> <13:39:42>  Oxygen (TZP, 1s frozen)
 <Sep08-2020> <13:39:42>  RunType   : CREATE
 <Sep08-2020> <13:39:42>  Net Charge: 0 (Nuclei minus Electrons)
 <Sep08-2020> <13:39:42>  Symmetry  : ATOM
  Coordinates
    Atom         X           Y           Z   (Angstrom)
    1.O         0.000000    0.000000    0.000000
 <Sep08-2020> <13:39:42>  >>>> CORORT
 <Sep08-2020> <13:39:42>  >>>> CLSMAT
 <Sep08-2020> <13:39:42>  >>>> ORTHON
 <Sep08-2020> <13:39:42>  >>>> GENPT
 <Sep08-2020> <13:39:42>  Block Length=  68
 <Sep08-2020> <13:39:42>  >>>> PTBAS
 <Sep08-2020> <13:39:42>  >>>> CYCLE
 <Sep08-2020> <13:39:42>              |Error|         MaxErr       Wt(A-DIIS)
 <Sep08-2020> <13:39:42>      1      0.00000000      0.00000000
 <Sep08-2020> <13:39:42>      2      4.56299337      2.52897111
 <Sep08-2020> <13:39:42>      3      2.72315525      1.79866705    100.0
 <Sep08-2020> <13:39:43>      4      0.28902714      0.13064862    100.0
 <Sep08-2020> <13:39:43>      5      0.41661509      0.23264367    100.0
 <Sep08-2020> <13:39:43>      6      0.01372327      0.00671904      5.8
 <Sep08-2020> <13:39:43>      7      0.00110365      0.00063404      0.0
 <Sep08-2020> <13:39:43>      8      0.00003592      0.00002026      0.0
 <Sep08-2020> <13:39:43>      9      0.00000033      0.00000018      0.0
 <Sep08-2020> <13:39:43>     10      0.00000000      0.00000000      0.0
 <Sep08-2020> <13:39:43>  SCF converged
 <Sep08-2020> <13:39:43>     11      0.00000000      0.00000000      0.0
 <Sep08-2020> <13:39:43>  >>>> POPAN
 <Sep08-2020> <13:39:43>  >>>> DEBYE
 <Sep08-2020> <13:39:43>  NORMAL TERMINATION
 <Sep08-2020> <13:39:43>  END

 *******************************************************************************
 *                                                                             *
 *  -------------------------------------                                      *
 *   Amsterdam Density Functional  (ADF)         2019                          *
 *  -------------------------------------                                      *
 *                                               r79301 2019-11-09             *
 *                                                                             *
 *                                                                             *
 *                            =====================                            *
 *                            |                   |                            *
 *                            |     D I R A C     |                            *
 *                            |                   |                            *
 *                            =====================                            *
 *                                                                             *
 *                                                                             *
 *   Online information and documentation:  https://www.scm.com/support/       *
 *   E-mail:  support@scm.com   info@scm.com                                   *
 *                                                                             *
 *   Scientific publications using ADF results must be properly referenced     *
 *   See the User Manuals (or the web site) for recommended citations          *
 *   The terms and conditions of the End User License Agreement apply to       *
 *   the use of ADF, https://www.scm.com/license-terms/                        *
 *                                                                             *
 **********************  x86_64_linux_intel / intelmpi  ************************
 
 
 
  
 DIRAC 2019  RunTime: Sep08-2020 13:39:43  Nodes: 1  Procs: 1

 Temporary files are created in /scratch/kid_0.1297726261 (0x58465342)

1
 TUNGSTEN ATOM 4d CORE RELATIVISTIC, Point Nuc, A and c from 
 N J RN H ZN XION ANUC CLIGHT
 5000   22100.00000000197.36710137 74.00000000  0.00000000  183.950932  0.1370360E+03
  PH   PHI     EPS        DEL        DELRVR
  0.30  0.30     2500.00  0.00001000  0.00001000
 IDIRC  NC1  NDEBU NPRIN  IPUN IRCOR IWCOR
   1   300     0     0     0     0    14
   XALPHA      XLATTER      RNUC
  0.70000000  0.00000000  0.00000000 Point Charge
   XN   XL   XJ      XE          XZ      XDELL
  1.0  0.0  0.5   -2600.000       2.000     0.00000
  2.0  0.0  0.5    -425.000       2.000     0.00000
  2.0  1.0  0.5    -425.000       2.000     0.00000
  2.0  1.0  1.5    -425.000       4.000     0.00000
  3.0  0.0  0.5    -100.000       2.000     0.00000
  3.0  1.0  0.5    -100.000       2.000     0.00000
  3.0  1.0  1.5    -100.000       4.000     0.00000
  3.0  2.0  1.5     -80.000       4.000     0.00000
  3.0  2.0  2.5     -80.000       6.000     0.00000
  4.0  0.0  0.5     -22.000       2.000     0.00000
  4.0  1.0  0.5     -20.000       2.000     0.00000
  4.0  1.0  1.5     -20.000       4.000     0.00000
  4.0  2.0  1.5     -11.000       4.000     0.00000
  4.0  2.0  2.5     -11.000       6.000     0.00000
  4.0  3.0  2.5      -1.000       6.000     0.00000
  4.0  3.0  3.5      -1.000       8.000     0.00000
  5.0  0.0  0.5      -3.000       2.000     0.00000
  5.0  1.0  0.5      -2.200       2.000     0.00000
  5.0  1.0  1.5      -2.200       4.000     0.00000
  5.0  2.0  1.5      -0.500       4.000     0.00000
  5.0  2.0  2.5      -0.500       0.000     0.00000
  6.0  0.0  0.5      -0.200       2.000     0.00000
 ICORP=  0  NPCL=  0  DEMP=0.00  PEPS=0.000000
 R(1)=  0.1000000E-08 D=  0.1005080E+01 RNUC=  0.0000000E+00
 converged at cycle   63  DENSITY AVERAGING    0.1536
  MAXIMUM ERROR IN R.V(R) IS   0.78838062E-05
 Q,EY,EV,EZ,ESUM,ETOT,RHO  0.740000E+02 -0.431420E+03 -0.281568E+05 -0.403919E+05 -0.993885E+04 -0.161643E+05  0.726391E-09


 DIRAC CALCULATION
1                    TUNGSTEN ATOM 4d CORE RELATIVISTIC, Point Nuc, A and c from libtc


 EXCHANGE COEFFICIENT=  0.7000000           TAIL CORRECTION=  0.           NUCLEAR RADIUS=  0.000E+00
0                       ORBITAL    N    L    J     ELECTRONS     EIGENVALUE                DELTA OF EIGENV.

                          1S1/2  1.0  0.0  0.5     2.000       -0.2549514E+04                 0.5980248E-04
                          2S1/2  2.0  0.0  0.5     2.000       -0.4399118E+03                 0.5052420E-04
                          2P1/2  2.0  1.0  0.5     2.000       -0.4208427E+03                 0.5265062E-04
                          2P3/2  2.0  1.0  1.5     4.000       -0.3711192E+03                 0.5139441E-04
                          3S1/2  3.0  0.0  0.5     2.000       -0.1012881E+03                 0.3437035E-04
                          3P1/2  3.0  1.0  0.5     2.000       -0.9277148E+02                 0.3553128E-04
                          3P3/2  3.0  1.0  1.5     4.000       -0.8201733E+02                 0.3404634E-04
                          3D3/2  3.0  2.0  1.5     4.000       -0.6762803E+02                 0.3680712E-04
                          3D5/2  3.0  2.0  2.5     6.000       -0.6528623E+02                 0.3629511E-04
                          4S1/2  4.0  0.0  0.5     2.000       -0.2084139E+02                 0.1939427E-04
                          4P1/2  4.0  1.0  0.5     2.000       -0.1730737E+02                 0.1933978E-04
                          4P3/2  4.0  1.0  1.5     4.000       -0.1480597E+02                 0.1810922E-04
                          4D3/2  4.0  2.0  1.5     4.000       -0.8989319E+01                 0.1779394E-04
                          4D5/2  4.0  2.0  2.5     6.000       -0.8528007E+01                 0.1741170E-04
                          4F5/2  4.0  3.0  2.5     6.000       -0.1237480E+01                 0.1544089E-04
                          4F7/2  4.0  3.0  3.5     8.000       -0.1154634E+01                 0.1522033E-04
                          5S1/2  5.0  0.0  0.5     2.000       -0.2863514E+01                 0.7979521E-05
                          5P1/2  5.0  1.0  0.5     2.000       -0.1813289E+01                 0.7246225E-05
                          5P3/2  5.0  1.0  1.5     4.000       -0.1448762E+01                 0.6602120E-05
                          5D3/2  5.0  2.0  1.5     4.000       -0.1486933E+00                 0.3973088E-05
                          5D5/2  5.0  2.0  2.5     0.000       -0.1223153E+00                 0.3735081E-05
                          6S1/2  6.0  0.0  0.5     2.000       -0.1847434E+00                 0.1808440E-05


                                        NUCLEAR CHARGE=   74.000000
                            INTEGRAL OF CHARGE DENSITY=   74.000000
                           SUM OF THE ORBITAL ENERGIES=  -9938.8529
                                          TOTAL ENERGY= -16164.2530
                                        KINETIC ENERGY=  18217.9700
                             NUCLEAR ATTRACTION ENERGY= -40391.9132
                             ELECTRON REPULSION ENERGY=   6333.2551
                                       EXCHANGE ENERGY=   -323.5649

 *******************************************************************************

                             D I R A C   E X I T
 NORMAL TERMINATION



 =================
 Timing Statistics
 =================
  
 Total Used :                     CPU=        0.66      System=        0.02     Elapsed=        0.70

 Calls  Section                     ( Mean, Percentage )
 ---------------------------------------------------------------------------------------------------
     2  ><      ................      0.00    0.00             0.00    0.00             0.00    0.00
     1  EXIT PROCEDURE .........      0.66  100.00             0.02  100.00             0.70  100.00


 Currently Open Files (EXIT00)
 ====================

 Unit    Access Format  Status   Type       Ident (file)
 -------------------------------------------------------
   3      SEQ    FORM   TRANSP  NORMAL      LOGFILE
                                          ( logfile )
 
Create W   file=TZP-W.4d
XC
  GGA PBE
End
relativistic ZORA
Corepotentials t12.rel
End

 *******************************************************************************
 *                                                                             *
 *  -------------------------------------                                      *
 *   Amsterdam Density Functional  (ADF)         2019                          *
 *  -------------------------------------                                      *
 *                                               r79301 2019-11-09             *
 *                                                                             *
 *                                                                             *
 *                              =================                              *
 *                              |               |                              *
 *                              |     A D F     |                              *
 *                              |               |                              *
 *                              =================                              *
 *                                                                             *
 *                                                                             *
 *   Online information and documentation:  https://www.scm.com/support/       *
 *   E-mail:  support@scm.com   info@scm.com                                   *
 *                                                                             *
 *   Scientific publications using ADF results must be properly referenced     *
 *   See the User Manuals (or the web site) for recommended citations          *
 *   The terms and conditions of the End User License Agreement apply to       *
 *   the use of ADF, https://www.scm.com/license-terms/                        *
 *                                                                             *
 **********************  x86_64_linux_intel / intelmpi  ************************
 
 
 
  
 ADF 2019  RunTime: Sep08-2020 13:39:44  Nodes: 1  Procs: 1

 Temporary files are created in /scratch/kid_0.1037715690 (0x58465342)

 Tungsten (TZP, 4d frozen)



 ===========================
 A T T A C H E D   F I L E S
 ===========================
  
 CREATE - Data File:    TZP-W.4d
                        Tungsten (TZP, 4d frozen)
 Core Potentials:
         file : t12.rel



 ===============================
 M O D E L   P A R A M E T E R S
 ===============================
  
 DENSITY FUNCTIONAL POTENTIAL (scf)
    LDA:                               PW92                                    == Not Default ==
    Gradient Corrections:              PBEc PBEx                               == Not Default ==

 SPIN  (restricted / unrestr.)
    Molecule:                          Restricted                               

 OTHER ASPECTS
    Relativistic Corrections:          scalar (ZORA,MAPA)                      == Not Default ==

    Nuclear Charge Density Model:      Point Charge Nuclei                      
    Core Treatment:                    Frozen Orbital(s)                        

    Hyperfine or Zeeman Interaction:   ---                                      



 =====================================
 S Y M M E T R Y ,   E L E C T R O N S
 =====================================
  
 Symmetry: ATOM

 Irreducible Representations, including subspecies
 -------------------------------------------------
 S
 P:x  P:y  P:z
 D:z2  D:x2-y2  D:xy  D:xz  D:yz
 F:z3  F:z  F:xyz  F:z2x  F:z2y  F:x  F:y


 Configuration of Valence Electrons
 ==================================

          Occupation Numbers
          -------------------------------------------------
 S        2*2
 P        6
 D        4
 F        14
          -------------------------------------------------

 Total:   28

 Net Charge: 0 (Nuclei minus Electrons)

 Preset values for MO occupations will be applied through SCF cycle no. 1000000
 Thereafter, the program will assign electrons to MOs that are spatially
 similar to the occupied MOs in a "reference" cycle ("KeepOrbitals").
 The reference cycle is always the PREVIOUS cycle: it will evolve with
 the SCF procedure.



 ================================
 (Slater-type)  F U N C T I O N S  ***  (Basis and Fit)  ***
 ================================
  

 Atom Type    1  (W)
 ==============

 Valence Basis Sets:  25
 -----------------------
   1 S   52.000000
   2 S   33.250000
   3 S   19.100000
   4 S   11.650000
   2 P   36.850000
   3 P   16.500000
   4 P   11.550000
   3 D   20.100000
   4 D   10.300000
   1 S  163.900000
   5 S    6.050000
   5 S    3.950000
   6 S    2.850000
   6 S    1.800000
   6 S    1.140000
   5 P    5.900000
   5 P    4.000000
   5 P    2.700000
   5 D    4.150000
   5 D    2.250000
   5 D    1.200000
   4 F   13.550000
   4 F    7.050000
   4 F    3.550000
   6 P    1.800000

 Frozen Core Shells
 ------------------
    S:  4
    P:  3
    D:  2


 BAS: List of all Elementary Cartesian Basis Functions
 =====================================================

 The numbering in the list below (to the right of the function characteristics) is referred
 to in print-outs of MO eigenvectors and Mulliken populations in the BAS representation
 (as contrasted to the SFO representation).

 Notes:
 1. The functions are characterized by a polynomial prefactor (powers of x,y,z and r) and
    an exponential decay factor alpha.
 2. Since the basis sets are specific for an atom TYPE, the individual functions occur on
    all atoms of that type.
 3. The word 'Core' in the left margin signals that it is a Core Function (CF) : not a
    degree of freedom in the valence set, but only used to ensure orthogonalization of
    the other valence basis functions on the frozen Core Orbitals.


 (power of) X  Y  Z  R     Alpha  on Atom
            ==========     =====     ==========

 W                                    1
                                  ---------------------------------------------------------------------------
    Core    0  0  0  0    52.000      1
    Core    0  0  0  1    33.250      2
    Core    0  0  0  2    19.100      3
    Core    0  0  0  3    11.650      4
    Core    1  0  0  0    36.850      5
    Core    0  1  0  0    36.850      6
    Core    0  0  1  0    36.850      7
    Core    1  0  0  1    16.500      8
    Core    0  1  0  1    16.500      9
    Core    0  0  1  1    16.500     10
    Core    1  0  0  2    11.550     11
    Core    0  1  0  2    11.550     12
    Core    0  0  1  2    11.550     13
    Core    2  0  0  0    20.100     14
    Core    1  1  0  0    20.100     15
    Core    1  0  1  0    20.100     16
    Core    0  2  0  0    20.100     17
    Core    0  1  1  0    20.100     18
    Core    0  0  2  0    20.100     19
    Core    2  0  0  1    10.300     20
    Core    1  1  0  1    10.300     21
    Core    1  0  1  1    10.300     22
    Core    0  2  0  1    10.300     23
    Core    0  1  1  1    10.300     24
    Core    0  0  2  1    10.300     25
            0  0  0  0   163.900     26
            0  0  0  4     6.050     27
            0  0  0  4     3.950     28
            0  0  0  5     2.850     29
            0  0  0  5     1.800     30
            0  0  0  5     1.140     31
            1  0  0  3     5.900     32
            0  1  0  3     5.900     33
            0  0  1  3     5.900     34
            1  0  0  3     4.000     35
            0  1  0  3     4.000     36
            0  0  1  3     4.000     37
            1  0  0  3     2.700     38
            0  1  0  3     2.700     39
            0  0  1  3     2.700     40
            2  0  0  2     4.150     41
            1  1  0  2     4.150     42
            1  0  1  2     4.150     43
            0  2  0  2     4.150     44
            0  1  1  2     4.150     45
            0  0  2  2     4.150     46
            2  0  0  2     2.250     47
            1  1  0  2     2.250     48
            1  0  1  2     2.250     49
            0  2  0  2     2.250     50
            0  1  1  2     2.250     51
            0  0  2  2     2.250     52
            2  0  0  2     1.200     53
            1  1  0  2     1.200     54
            1  0  1  2     1.200     55
            0  2  0  2     1.200     56
            0  1  1  2     1.200     57
            0  0  2  2     1.200     58
            3  0  0  0    13.550     59
            2  1  0  0    13.550     60
            2  0  1  0    13.550     61
            1  2  0  0    13.550     62
            1  1  1  0    13.550     63
            1  0  2  0    13.550     64
            0  3  0  0    13.550     65
            0  2  1  0    13.550     66
            0  1  2  0    13.550     67
            0  0  3  0    13.550     68
            3  0  0  0     7.050     69
            2  1  0  0     7.050     70
            2  0  1  0     7.050     71
            1  2  0  0     7.050     72
            1  1  1  0     7.050     73
            1  0  2  0     7.050     74
            0  3  0  0     7.050     75
            0  2  1  0     7.050     76
            0  1  2  0     7.050     77
            0  0  3  0     7.050     78
            3  0  0  0     3.550     79
            2  1  0  0     3.550     80
            2  0  1  0     3.550     81
            1  2  0  0     3.550     82
            1  1  1  0     3.550     83
            1  0  2  0     3.550     84
            0  3  0  0     3.550     85
            0  2  1  0     3.550     86
            0  1  2  0     3.550     87
            0  0  3  0     3.550     88
            1  0  0  4     1.800     89
            0  1  0  4     1.800     90
            0  0  1  4     1.800     91

 Total number of charge fitting functions (nprimf)       329
 Total number of Cartesian basis functions (naos)         91
 Total number of Cartesian core functions  (ncos)         25



 BAS: List of all Elementary Cartesian Basis Functions
 =====================================================

 The numbering in the list below (to the right of the function characteristics) is referred
 to in print-outs of MO eigenvectors and Mulliken populations in the BAS representation
 (as contrasted to the SFO representation).

 Notes:
 1. The functions are characterized by a polynomial prefactor (powers of x,y,z and r) and
    an exponential decay factor alpha.
 2. Since the basis sets are specific for an atom TYPE, the individual functions occur on
    all atoms of that type.
 3. The word 'Core' in the left margin signals that it is a Core Function (CF) : not a
    degree of freedom in the valence set, but only used to ensure orthogonalization of
    the other valence basis functions on the frozen Core Orbitals.


 (power of) X  Y  Z  R     Alpha  on Atom
            ==========     =====     ==========

 W                                    1
                                  ---------------------------------------------------------------------------
    Core    0  0  0  0    52.000      1
    Core    0  0  0  1    33.250      2
    Core    0  0  0  2    19.100      3
    Core    0  0  0  3    11.650      4
    Core    1  0  0  0    36.850      5
    Core    0  1  0  0    36.850      6
    Core    0  0  1  0    36.850      7
    Core    1  0  0  1    16.500      8
    Core    0  1  0  1    16.500      9
    Core    0  0  1  1    16.500     10
    Core    1  0  0  2    11.550     11
    Core    0  1  0  2    11.550     12
    Core    0  0  1  2    11.550     13
    Core    2  0  0  0    20.100     14
    Core    1  1  0  0    20.100     15
    Core    1  0  1  0    20.100     16
    Core    0  2  0  0    20.100     17
    Core    0  1  1  0    20.100     18
    Core    0  0  2  0    20.100     19
    Core    2  0  0  1    10.300     20
    Core    1  1  0  1    10.300     21
    Core    1  0  1  1    10.300     22
    Core    0  2  0  1    10.300     23
    Core    0  1  1  1    10.300     24
    Core    0  0  2  1    10.300     25
            0  0  0  0   163.900     26
            0  0  0  4     6.050     27
            0  0  0  4     3.950     28
            0  0  0  5     2.850     29
            0  0  0  5     1.800     30
            0  0  0  5     1.140     31
            1  0  0  3     5.900     32
            0  1  0  3     5.900     33
            0  0  1  3     5.900     34
            1  0  0  3     4.000     35
            0  1  0  3     4.000     36
            0  0  1  3     4.000     37
            1  0  0  3     2.700     38
            0  1  0  3     2.700     39
            0  0  1  3     2.700     40
            2  0  0  2     4.150     41
            1  1  0  2     4.150     42
            1  0  1  2     4.150     43
            0  2  0  2     4.150     44
            0  1  1  2     4.150     45
            0  0  2  2     4.150     46
            2  0  0  2     2.250     47
            1  1  0  2     2.250     48
            1  0  1  2     2.250     49
            0  2  0  2     2.250     50
            0  1  1  2     2.250     51
            0  0  2  2     2.250     52
            2  0  0  2     1.200     53
            1  1  0  2     1.200     54
            1  0  1  2     1.200     55
            0  2  0  2     1.200     56
            0  1  1  2     1.200     57
            0  0  2  2     1.200     58
            3  0  0  0    13.550     59
            2  1  0  0    13.550     60
            2  0  1  0    13.550     61
            1  2  0  0    13.550     62
            1  1  1  0    13.550     63
            1  0  2  0    13.550     64
            0  3  0  0    13.550     65
            0  2  1  0    13.550     66
            0  1  2  0    13.550     67
            0  0  3  0    13.550     68
            3  0  0  0     7.050     69
            2  1  0  0     7.050     70
            2  0  1  0     7.050     71
            1  2  0  0     7.050     72
            1  1  1  0     7.050     73
            1  0  2  0     7.050     74
            0  3  0  0     7.050     75
            0  2  1  0     7.050     76
            0  1  2  0     7.050     77
            0  0  3  0     7.050     78
            3  0  0  0     3.550     79
            2  1  0  0     3.550     80
            2  0  1  0     3.550     81
            1  2  0  0     3.550     82
            1  1  1  0     3.550     83
[...]
 <Sep08-2020> <15:43:46>     12      0.00064983      0.00007745      0.0
 <Sep08-2020> <15:43:49>     13      0.00051995      0.00005858      0.0
 <Sep08-2020> <15:43:51>     14      0.00010857      0.00001596      0.0
 <Sep08-2020> <15:43:54>     15      0.00007319      0.00001243      0.0
 <Sep08-2020> <15:43:57>     16      0.00005058      0.00000710      0.0
 <Sep08-2020> <15:44:00>     17      0.00001522      0.00000183      0.0
 <Sep08-2020> <15:44:02>     18      0.00001998      0.00000247      0.0
 <Sep08-2020> <15:44:05>     19      0.00001482      0.00000215      0.0
 <Sep08-2020> <15:44:08>     20      0.00000267      0.00000028      0.0
 <Sep08-2020> <15:44:09>  SCF converged
 <Sep08-2020> <15:44:10>     21      0.00000225      0.00000026      0.0
 <Sep08-2020> <15:44:12>  >>>> TOTEN
 <Sep08-2020> <15:44:13>  >>>> POPAN
 <Sep08-2020> <15:44:13>  >>>> DEBYE
 <Sep08-2020> <15:44:13>  >>>> ENGRAD
 <Sep08-2020> <15:44:24>  Geometry symmetry displacement    2 out of    6
  Coordinates in Geometry Cycle 22
    Atom         X           Y           Z   (Angstrom)
    1.W         3.979025    3.546024    6.923321
    2.W         6.711836    3.567309    9.999874
    3.W         4.182862    1.665681    9.685285
    4.W         3.214797    6.772009    8.060595
    5.W         7.047977    7.293234    9.471260
    6.W         4.496622    9.308475    9.619729
    7.O         5.263237    3.215837    8.774582
    8.O         6.741608    5.349718    9.456252
    9.O         3.232078    2.146606    8.033558
   10.O         4.379142    5.344627    7.355370
   11.O         2.071449    5.790626    8.942427
   12.O         8.006124    7.544044    8.038877
   13.O         3.957422    9.693588   11.242043
   14.O         6.408445    9.068216    9.931428
   15.O         7.354214    3.925285   11.772354
   16.O         5.227794    2.934549    5.867830
   17.O         4.556012   10.794885    8.691538
   18.O         4.997485    7.362341    8.966841
   19.O         2.886772    8.519104    8.888015
   20.O         2.583435    3.740867    5.888864
   21.O         8.095981    2.837520    9.269736
   22.O         2.844079    1.773300   10.808176
   23.O         5.659388    2.134997   10.867474
   24.O         8.172716    7.219293   10.811177
   25.O         2.481004    7.180746    6.527026
   26.O         4.520018   -0.022910    9.379692
   27.H         6.704211    3.960700   12.503075
 <Sep08-2020> <15:44:24>  >>>> CORORT
 <Sep08-2020> <15:44:24>  >>>> CLSMAT
 <Sep08-2020> <15:44:24>  >>>> ORTHON
 <Sep08-2020> <15:44:24>  >>>> GENPT
 <Sep08-2020> <15:44:25>  Block Length= 128
 <Sep08-2020> <15:44:25>  >>>> PTBAS
 <Sep08-2020> <15:44:27>  combining surface points...
 <Sep08-2020> <15:44:27>  combining surface points...
 <Sep08-2020> <15:44:27>  combining surface points...
 <Sep08-2020> <15:44:27>  >>>> CYCLE
 <Sep08-2020> <15:44:32>              |Error|         MaxErr       Wt(A-DIIS)
 <Sep08-2020> <15:44:32>      1      0.12849311      0.02428686
 <Sep08-2020> <15:44:35>      2      0.38102691      0.04035536    100.0
 <Sep08-2020> <15:44:38>      3      0.12874909      0.01304933    100.0
 <Sep08-2020> <15:44:41>      4      0.24227399      0.02516545    100.0
 <Sep08-2020> <15:44:44>      5      0.23073295      0.02133136    100.0
 <Sep08-2020> <15:44:47>      6      0.14014246      0.02475593     24.0
 <Sep08-2020> <15:44:50>      7      0.06093507      0.00907807      8.2
 <Sep08-2020> <15:44:53>      8      0.02076088      0.00284461      1.9
 <Sep08-2020> <15:44:56>      9      0.01115744      0.00129454      0.3
 <Sep08-2020> <15:44:59>     10      0.00369034      0.00042806      0.0
 <Sep08-2020> <15:45:02>     11      0.00193242      0.00025607      0.0
 <Sep08-2020> <15:45:04>     12      0.00065033      0.00007771      0.0
 <Sep08-2020> <15:45:07>     13      0.00052098      0.00005866      0.0
 <Sep08-2020> <15:45:10>     14      0.00010867      0.00001595      0.0
 <Sep08-2020> <15:45:13>     15      0.00007329      0.00001245      0.0
 <Sep08-2020> <15:45:15>     16      0.00005080      0.00000712      0.0
 <Sep08-2020> <15:45:18>     17      0.00001529      0.00000184      0.0
 <Sep08-2020> <15:45:21>     18      0.00002011      0.00000249      0.0
 <Sep08-2020> <15:45:23>     19      0.00001487      0.00000215      0.0
 <Sep08-2020> <15:45:26>     20      0.00000266      0.00000028      0.0
 <Sep08-2020> <15:45:27>  SCF converged
 <Sep08-2020> <15:45:29>     21      0.00000226      0.00000026      0.0
 <Sep08-2020> <15:45:30>  >>>> TOTEN
 <Sep08-2020> <15:45:32>  >>>> POPAN
 <Sep08-2020> <15:45:32>  >>>> DEBYE
 <Sep08-2020> <15:45:32>  >>>> ENGRAD
 <Sep08-2020> <15:45:43>  Old frequency:    -29.16296, new:      2.24014
 <Sep08-2020> <15:45:43>  Geometry symmetry displacement    3 out of    6
  Coordinates in Geometry Cycle 22
    Atom         X           Y           Z   (Angstrom)
    1.W         3.978913    3.546032    6.923478
    2.W         6.712008    3.567155    9.999614
    3.W         4.182894    1.665628    9.685343
    4.W         3.214830    6.772055    8.060490
    5.W         7.047859    7.293251    9.471678
    6.W         4.496585    9.308631    9.619512
    7.O         5.262937    3.216031    8.774746
    8.O         6.741513    5.349718    9.456561
    9.O         3.231954    2.146591    8.033722
   10.O         4.379184    5.344670    7.355332
   11.O         2.071357    5.790693    8.942182
   12.O         8.006393    7.544029    8.039549
   13.O         3.957172    9.694339   11.241614
   14.O         6.408325    9.068288    9.931623
   15.O         7.355306    3.924433   11.771896
   16.O         5.227594    2.934440    5.867956
   17.O         4.556237   10.794728    8.690842
   18.O         4.997450    7.362359    8.966968
   19.O         2.886755    8.519150    8.887892
   20.O         2.583269    3.740898    5.889093
   21.O         8.095799    2.837563    9.268610
   22.O         2.844319    1.773298   10.808472
   23.O         5.659751    2.134721   10.867235
   24.O         8.172239    7.219255   10.811890
   25.O         2.481194    7.180854    6.526862
   26.O         4.519905   -0.022975    9.379623
   27.H         6.705729    3.959446   12.503012
 <Sep08-2020> <15:45:43>  >>>> CORORT
 <Sep08-2020> <15:45:43>  >>>> CLSMAT
 <Sep08-2020> <15:45:43>  >>>> ORTHON
 <Sep08-2020> <15:45:43>  >>>> GENPT
 <Sep08-2020> <15:45:43>  Block Length= 128
 <Sep08-2020> <15:45:43>  >>>> PTBAS
 <Sep08-2020> <15:45:46>  combining surface points...
 <Sep08-2020> <15:45:46>  combining surface points...
 <Sep08-2020> <15:45:46>  combining surface points...
 <Sep08-2020> <15:45:46>  >>>> CYCLE
 <Sep08-2020> <15:45:51>              |Error|         MaxErr       Wt(A-DIIS)
 <Sep08-2020> <15:45:51>      1      0.12235771      0.01465319
 <Sep08-2020> <15:45:54>      2      0.38107808      0.04033615    100.0
 <Sep08-2020> <15:45:57>      3      0.12894713      0.01301686    100.0
 <Sep08-2020> <15:45:59>      4      0.24355018      0.02529285    100.0
 <Sep08-2020> <15:46:02>      5      0.22889859      0.02112893    100.0
 <Sep08-2020> <15:46:05>      6      0.14101435      0.02501246     24.3
 <Sep08-2020> <15:46:08>      7      0.06078111      0.00904686      8.1
 <Sep08-2020> <15:46:11>      8      0.02081868      0.00285776      1.9
 <Sep08-2020> <15:46:14>      9      0.01115531      0.00129493      0.3
 <Sep08-2020> <15:46:17>     10      0.00368864      0.00042775      0.0
 <Sep08-2020> <15:46:20>     11      0.00193077      0.00025615      0.0
 <Sep08-2020> <15:46:23>     12      0.00064908      0.00007721      0.0
 <Sep08-2020> <15:46:26>     13      0.00051882      0.00005852      0.0
 <Sep08-2020> <15:46:29>     14      0.00010838      0.00001597      0.0
 <Sep08-2020> <15:46:31>     15      0.00007314      0.00001242      0.0
 <Sep08-2020> <15:46:34>     16      0.00005027      0.00000707      0.0
 <Sep08-2020> <15:46:37>     17      0.00001513      0.00000181      0.0
 <Sep08-2020> <15:46:39>     18      0.00001984      0.00000246      0.0
 <Sep08-2020> <15:46:42>     19      0.00001476      0.00000215      0.0
 <Sep08-2020> <15:46:45>     20      0.00000266      0.00000028      0.0
 <Sep08-2020> <15:46:46>  SCF converged
 <Sep08-2020> <15:46:47>     21      0.00000224      0.00000025      0.0
 <Sep08-2020> <15:46:49>  >>>> TOTEN
 <Sep08-2020> <15:46:50>  >>>> POPAN
 <Sep08-2020> <15:46:50>  >>>> DEBYE
 <Sep08-2020> <15:46:50>  >>>> ENGRAD
 <Sep08-2020> <15:47:01>  Geometry symmetry displacement    4 out of    6
  Coordinates in Geometry Cycle 22
    Atom         X           Y           Z   (Angstrom)
    1.W         3.979106    3.546092    6.923199
    2.W         6.711743    3.567335    9.999927
    3.W         4.182859    1.665632    9.685088
    4.W         3.214686    6.771810    8.061042
    5.W         7.047985    7.293227    9.471360
    6.W         4.496749    9.308633    9.619427
    7.O         5.263295    3.215809    8.774463
    8.O         6.741576    5.349712    9.456197
    9.O         3.232184    2.146558    8.033300
   10.O         4.379082    5.344696    7.355390
   11.O         2.071995    5.790305    8.943583
   12.O         8.006369    7.544016    8.039130
   13.O         3.957535    9.694549   11.241547
   14.O         6.408510    9.068273    9.931401
   15.O         7.353841    3.925460   11.772476
   16.O         5.227927    2.934783    5.867675
   17.O         4.556294   10.794601    8.690548
   18.O         4.997556    7.362400    8.966826
   19.O         2.886783    8.519051    8.888171
   20.O         2.583522    3.740948    5.888737
   21.O         8.096008    2.837522    9.270040
   22.O         2.843965    1.773139   10.807858
   23.O         5.659229    2.135020   10.867435
   24.O         8.172494    7.219201   10.811464
   25.O         2.480018    7.180127    6.527775
   26.O         4.520139   -0.022931    9.379485
   27.H         6.703696    3.961136   12.503059
 <Sep08-2020> <15:47:01>  >>>> CORORT
 <Sep08-2020> <15:47:02>  >>>> CLSMAT
 <Sep08-2020> <15:47:02>  >>>> ORTHON
 <Sep08-2020> <15:47:02>  >>>> GENPT
 <Sep08-2020> <15:47:02>  Block Length= 128
 <Sep08-2020> <15:47:02>  >>>> PTBAS
 <Sep08-2020> <15:47:04>  combining surface points...
 <Sep08-2020> <15:47:04>  combining surface points...
 <Sep08-2020> <15:47:04>  combining surface points...
 <Sep08-2020> <15:47:04>  >>>> CYCLE
 <Sep08-2020> <15:47:09>              |Error|         MaxErr       Wt(A-DIIS)
 <Sep08-2020> <15:47:09>      1      0.12679147      0.01885049
 <Sep08-2020> <15:47:12>      2      0.38103162      0.04035140    100.0
 <Sep08-2020> <15:47:15>      3      0.12862514      0.01306853    100.0
 <Sep08-2020> <15:47:18>      4      0.24146085      0.02510990    100.0
 <Sep08-2020> <15:47:21>      5      0.23197044      0.02145535    100.0
 <Sep08-2020> <15:47:24>      6      0.13959935      0.02459797     23.8
 <Sep08-2020> <15:47:27>      7      0.06106516      0.00910121      8.2
 <Sep08-2020> <15:47:30>      8      0.02073568      0.00283879      1.9
 <Sep08-2020> <15:47:33>      9      0.01116442      0.00129501      0.3
 <Sep08-2020> <15:47:36>     10      0.00369224      0.00042829      0.0
 <Sep08-2020> <15:47:39>     11      0.00193486      0.00025606      0.0
 <Sep08-2020> <15:47:41>     12      0.00065139      0.00007801      0.0
 <Sep08-2020> <15:47:44>     13      0.00052236      0.00005874      0.0
 <Sep08-2020> <15:47:47>     14      0.00010895      0.00001593      0.0
 <Sep08-2020> <15:47:50>     15      0.00007333      0.00001247      0.0
 <Sep08-2020> <15:47:52>     16      0.00005121      0.00000717      0.0
 <Sep08-2020> <15:47:55>     17      0.00001538      0.00000185      0.0
 <Sep08-2020> <15:47:58>     18      0.00002030      0.00000250      0.0
 <Sep08-2020> <15:48:00>     19      0.00001494      0.00000215      0.0
 <Sep08-2020> <15:48:03>     20      0.00000267      0.00000028      0.0
 <Sep08-2020> <15:48:04>  SCF converged
 <Sep08-2020> <15:48:06>     21      0.00000227      0.00000026      0.0
 <Sep08-2020> <15:48:07>  >>>> TOTEN
 <Sep08-2020> <15:48:09>  >>>> POPAN
 <Sep08-2020> <15:48:09>  >>>> DEBYE
 <Sep08-2020> <15:48:09>  >>>> ENGRAD
 <Sep08-2020> <15:48:20>  Old frequency:    -24.22018, new:     25.95228
 <Sep08-2020> <15:48:20>  Geometry symmetry displacement    5 out of    6
  Coordinates in Geometry Cycle 22
    Atom         X           Y           Z   (Angstrom)
    1.W         3.978985    3.546088    6.923405
    2.W         6.711882    3.567161    9.999897
    3.W         4.183027    1.665400    9.685130
    4.W         3.214660    6.772121    8.060798
    5.W         7.047837    7.293184    9.471473
    6.W         4.496712    9.308763    9.619417
    7.O         5.263324    3.215684    8.774575
    8.O         6.741450    5.349656    9.456620
    9.O         3.232146    2.146515    8.033498
   10.O         4.378984    5.344628    7.355792
   11.O         2.071090    5.790968    8.942583
   12.O         8.005816    7.543853    8.038951
   13.O         3.957357    9.695002   11.241408
   14.O         6.408434    9.068233    9.931540
   15.O         7.354246    3.924846   11.772450
   16.O         5.227777    2.934848    5.867802
   17.O         4.556590   10.794592    8.690329
   18.O         4.997261    7.362245    8.967430
   19.O         2.886763    8.519351    8.887967
   20.O         2.583372    3.741008    5.888997
   21.O         8.096090    2.837647    9.269599
   22.O         2.844266    1.772811   10.808067
   23.O         5.659558    2.134632   10.867333
   24.O         8.172721    7.219307   10.811269
   25.O         2.481077    7.180792    6.527110
   26.O         4.520245   -0.023134    9.379292
   27.H         6.704279    3.959609   12.503233
 <Sep08-2020> <15:48:20>  >>>> CORORT
 <Sep08-2020> <15:48:20>  >>>> CLSMAT
 <Sep08-2020> <15:48:20>  >>>> ORTHON
 <Sep08-2020> <15:48:20>  >>>> GENPT
 <Sep08-2020> <15:48:20>  Block Length= 128
 <Sep08-2020> <15:48:20>  >>>> PTBAS
 <Sep08-2020> <15:48:23>  combining surface points...
 <Sep08-2020> <15:48:23>  combining surface points...
 <Sep08-2020> <15:48:23>  combining surface points...
 <Sep08-2020> <15:48:23>  >>>> CYCLE
 <Sep08-2020> <15:48:28>              |Error|         MaxErr       Wt(A-DIIS)
 <Sep08-2020> <15:48:28>      1      0.12431156      0.01880198
 <Sep08-2020> <15:48:31>      2      0.38097747      0.04033758    100.0
 <Sep08-2020> <15:48:34>      3      0.12882963      0.01301353    100.0
 <Sep08-2020> <15:48:37>      4      0.24288795      0.02522712    100.0
 <Sep08-2020> <15:48:40>      5      0.22979668      0.02122873    100.0
 <Sep08-2020> <15:48:42>      6      0.14058785      0.02489185     24.1
 <Sep08-2020> <15:48:45>      7      0.06083821      0.00906081      8.1
 <Sep08-2020> <15:48:48>      8      0.02078046      0.00284994      1.9
 <Sep08-2020> <15:48:51>      9      0.01115389      0.00129478      0.3
 <Sep08-2020> <15:48:54>     10      0.00368926      0.00042808      0.0
 <Sep08-2020> <15:48:57>     11      0.00193072      0.00025617      0.0
 <Sep08-2020> <15:49:00>     12      0.00064946      0.00007742      0.0
 <Sep08-2020> <15:49:03>     13      0.00051979      0.00005860      0.0
 <Sep08-2020> <15:49:06>     14      0.00010850      0.00001596      0.0
 <Sep08-2020> <15:49:08>     15      0.00007317      0.00001241      0.0
 <Sep08-2020> <15:49:11>     16      0.00005051      0.00000710      0.0
 <Sep08-2020> <15:49:14>     17      0.00001520      0.00000182      0.0
 <Sep08-2020> <15:49:16>     18      0.00001995      0.00000247      0.0
 <Sep08-2020> <15:49:19>     19      0.00001480      0.00000215      0.0
 <Sep08-2020> <15:49:22>     20      0.00000267      0.00000028      0.0
 <Sep08-2020> <15:49:23>  SCF converged
 <Sep08-2020> <15:49:24>     21      0.00000225      0.00000026      0.0
 <Sep08-2020> <15:49:26>  >>>> TOTEN
 <Sep08-2020> <15:49:27>  >>>> POPAN
 <Sep08-2020> <15:49:27>  >>>> DEBYE
 <Sep08-2020> <15:49:27>  >>>> ENGRAD
 <Sep08-2020> <15:49:38>  Geometry symmetry displacement    6 out of    6
  Coordinates in Geometry Cycle 22
    Atom         X           Y           Z   (Angstrom)
    1.W         3.979034    3.546037    6.923272
    2.W         6.711869    3.567329    9.999643
    3.W         4.182725    1.665860    9.685301
    4.W         3.214855    6.771745    8.060734
    5.W         7.048007    7.293295    9.471566
    6.W         4.496622    9.308501    9.619523
    7.O         5.262908    3.216156    8.774634
    8.O         6.741638    5.349774    9.456137
    9.O         3.231992    2.146634    8.033523
   10.O         4.379282    5.344738    7.354930
   11.O         2.072263    5.790030    8.943183
   12.O         8.006946    7.544192    8.039728
   13.O         3.957351    9.693886   11.241754
   14.O         6.408400    9.068329    9.931485
   15.O         7.354901    3.925047   11.771922
   16.O         5.227745    2.934375    5.867828
   17.O         4.555941   10.794737    8.691060
   18.O         4.997745    7.362514    8.966365
   19.O         2.886774    8.518850    8.888096
   20.O         2.583419    3.740838    5.888833
   21.O         8.095717    2.837439    9.269051
   22.O         2.844018    1.773626   10.808263
   23.O         5.659422    2.135110   10.867337
   24.O         8.172012    7.219149   10.812085
   25.O         2.480135    7.180189    6.527527
   26.O         4.519799   -0.022773    9.379816
   27.H         6.705145    3.960973   12.502838
 <Sep08-2020> <15:49:38>  >>>> CORORT
 <Sep08-2020> <15:49:39>  >>>> CLSMAT
 <Sep08-2020> <15:49:39>  >>>> ORTHON
 <Sep08-2020> <15:49:39>  >>>> GENPT
 <Sep08-2020> <15:49:39>  Block Length= 128
 <Sep08-2020> <15:49:39>  >>>> PTBAS
 <Sep08-2020> <15:49:42>  combining surface points...
 <Sep08-2020> <15:49:42>  combining surface points...
 <Sep08-2020> <15:49:42>  combining surface points...
 <Sep08-2020> <15:49:42>  >>>> CYCLE
 <Sep08-2020> <15:49:46>              |Error|         MaxErr       Wt(A-DIIS)
 <Sep08-2020> <15:49:46>      1      0.13157855      0.01962566
 <Sep08-2020> <15:49:49>      2      0.38122910      0.04037807    100.0
 <Sep08-2020> <15:49:52>      3      0.12897397      0.01305117    100.0
 <Sep08-2020> <15:49:55>      4      0.24360400      0.02533102    100.0
 <Sep08-2020> <15:49:58>      5      0.22889761      0.02113947    100.0
 <Sep08-2020> <15:50:01>      6      0.14101452      0.02499867     24.2
 <Sep08-2020> <15:50:04>      7      0.06078360      0.00904553      8.1
 <Sep08-2020> <15:50:07>      8      0.02082773      0.00285877      1.9
 <Sep08-2020> <15:50:10>      9      0.01115587      0.00129439      0.3
 <Sep08-2020> <15:50:13>     10      0.00368870      0.00042736      0.0
 <Sep08-2020> <15:50:16>     11      0.00193187      0.00025601      0.0
 <Sep08-2020> <15:50:19>     12      0.00064935      0.00007730      0.0
 <Sep08-2020> <15:50:22>     13      0.00051899      0.00005847      0.0
 <Sep08-2020> <15:50:24>     14      0.00010836      0.00001597      0.0
 <Sep08-2020> <15:50:27>     15      0.00007325      0.00001246      0.0
 <Sep08-2020> <15:50:30>     16      0.00005028      0.00000705      0.0
 <Sep08-2020> <15:50:32>     17      0.00001516      0.00000182      0.0
 <Sep08-2020> <15:50:35>     18      0.00001985      0.00000246      0.0
 <Sep08-2020> <15:50:38>     19      0.00001478      0.00000215      0.0
 <Sep08-2020> <15:50:41>     20      0.00000266      0.00000028      0.0
 <Sep08-2020> <15:50:42>  SCF converged
 <Sep08-2020> <15:50:43>     21      0.00000224      0.00000025      0.0
 <Sep08-2020> <15:50:45>  >>>> TOTEN
 <Sep08-2020> <15:50:46>  >>>> POPAN
 <Sep08-2020> <15:50:46>  >>>> DEBYE
 <Sep08-2020> <15:50:46>  >>>> ENGRAD
 <Sep08-2020> <15:50:57>  Old frequency:    -20.00271, new:     24.65824
 <Sep08-2020> <15:50:57>  NOTE: Some frequencies have been re-calculated by numerical differentiation
 <Sep08-2020> <15:50:57>        Check the text output file for new values!
 <Sep08-2020> <15:50:57>  NORMAL TERMINATION
 <Sep08-2020> <15:50:57>  END
