
 *******************************************************************************
 *                                                                             *
 *  -------------------------------------                                      *
 *   Amsterdam Density Functional  (ADF)         2019                          *
 *  -------------------------------------                                      *
 *                                               r79301 2019-11-09             *
 *                                                                             *
 *                                                                             *
 *                            =====================                            *
 *                            |                   |                            *
 *                            |     D I R A C     |                            *
 *                            |                   |                            *
 *                            =====================                            *
 *                                                                             *
 *                                                                             *
 *   Online information and documentation:  https://www.scm.com/support/       *
 *   E-mail:  support@scm.com   info@scm.com                                   *
 *                                                                             *
 *   Scientific publications using ADF results must be properly referenced     *
 *   See the User Manuals (or the web site) for recommended citations          *
 *   The terms and conditions of the End User License Agreement apply to       *
 *   the use of ADF, https://www.scm.com/license-terms/                        *
 *                                                                             *
 **********************  x86_64_linux_intel / intelmpi  ************************
 
 
 
  
 DIRAC 2019  RunTime: Sep08-2020 06:13:00  Nodes: 1  Procs: 1

 Temporary files are created in /scratch/kid_0.630489666 (0x58465342)

1
 HYDROGEN ATOM RELATIVISTIC, Point Nuc, A and c from libtc   
 N J RN H ZN XION ANUC CLIGHT
 5000    1100.00000000197.36710137  1.00000000  0.00000000    1.007825  0.1370360E+03
  PH   PHI     EPS        DEL        DELRVR
  0.30  0.30     2500.00  0.00001000  0.00001000
 IDIRC  NC1  NDEBU NPRIN  IPUN IRCOR IWCOR
   1   300     0     0     0     0     0
   XALPHA      XLATTER      RNUC
  0.70000000  0.00000000  0.00000000 Point Charge
   XN   XL   XJ      XE          XZ      XDELL
  1.0  0.0  0.5      -1.000       1.000     0.00000
 ICORP=  0  NPCL=  0  DEMP=0.00  PEPS=0.000000
 R(1)=  0.1000000E-08 D=  0.1005080E+01 RNUC=  0.0000000E+00
 converged at cycle   32  DENSITY AVERAGING    0.2400
  MAXIMUM ERROR IN R.V(R) IS   0.79874357E-05
 Q,EY,EV,EZ,ESUM,ETOT,RHO  0.100000E+01 -0.266614E+00 -0.619969E+00 -0.910779E+00 -0.203940E+00 -0.415998E+00  0.337036E-17


 DIRAC CALCULATION
1                    HYDROGEN ATOM RELATIVISTIC, Point Nuc, A and c from libtc


 EXCHANGE COEFFICIENT=  0.7000000           TAIL CORRECTION=  0.           NUCLEAR RADIUS=  0.000E+00
0                       ORBITAL    N    L    J     ELECTRONS     EIGENVALUE                DELTA OF EIGENV.

                          1S1/2  1.0  0.0  0.5     1.000       -0.2039397E+00                 0.2720093E-06


                                        NUCLEAR CHARGE=    1.000000
                            INTEGRAL OF CHARGE DENSITY=    1.000000
                           SUM OF THE ORBITAL ENERGIES=     -0.2039
                                          TOTAL ENERGY=     -0.4160
                                        KINETIC ENERGY=      0.4160
                             NUCLEAR ATTRACTION ENERGY=     -0.9108
                             ELECTRON REPULSION ENERGY=      0.2787
                                       EXCHANGE ENERGY=     -0.2000

 *******************************************************************************

                             D I R A C   E X I T
 NORMAL TERMINATION



 =================
 Timing Statistics
 =================
  
 Total Used :                     CPU=        0.06      System=        0.00     Elapsed=        0.07

 Calls  Section                     ( Mean, Percentage )
 ---------------------------------------------------------------------------------------------------
     2  ><      ................      0.00    0.00             0.00    0.00             0.00    0.01
     1  EXIT PROCEDURE .........      0.06  100.00             0.00    0.00             0.07   99.99


 Currently Open Files (EXIT00)
 ====================

 Unit    Access Format  Status   Type       Ident (file)
 -------------------------------------------------------
   3      SEQ    FORM   TRANSP  NORMAL      LOGFILE
                                          ( logfile )
 
Create H   file=TZP-H
XC
  GGA PBE
End
relativistic ZORA
Corepotentials t12.rel
End

 *******************************************************************************
 *                                                                             *
 *  -------------------------------------                                      *
 *   Amsterdam Density Functional  (ADF)         2019                          *
 *  -------------------------------------                                      *
 *                                               r79301 2019-11-09             *
 *                                                                             *
 *                                                                             *
 *                              =================                              *
 *                              |               |                              *
 *                              |     A D F     |                              *
 *                              |               |                              *
 *                              =================                              *
 *                                                                             *
 *                                                                             *
 *   Online information and documentation:  https://www.scm.com/support/       *
 *   E-mail:  support@scm.com   info@scm.com                                   *
 *                                                                             *
 *   Scientific publications using ADF results must be properly referenced     *
 *   See the User Manuals (or the web site) for recommended citations          *
 *   The terms and conditions of the End User License Agreement apply to       *
 *   the use of ADF, https://www.scm.com/license-terms/                        *
 *                                                                             *
 **********************  x86_64_linux_intel / intelmpi  ************************
 
 
 
  
 ADF 2019  RunTime: Sep08-2020 06:13:01  Nodes: 1  Procs: 1

 Temporary files are created in /scratch/kid_0.1517661481 (0x58465342)

 Hydrogen (TZP)



 ===========================
 A T T A C H E D   F I L E S
 ===========================
  
 CREATE - Data File:    TZP-H
                        Hydrogen (TZP)
 Core Potentials:
         file : t12.rel



 ===============================
 M O D E L   P A R A M E T E R S
 ===============================
  
 DENSITY FUNCTIONAL POTENTIAL (scf)
    LDA:                               PW92                                    == Not Default ==
    Gradient Corrections:              PBEc PBEx                               == Not Default ==

 SPIN  (restricted / unrestr.)
    Molecule:                          Restricted                               

 OTHER ASPECTS
    Relativistic Corrections:          scalar (ZORA,MAPA)                      == Not Default ==

    Nuclear Charge Density Model:      Point Charge Nuclei                      
    Core Treatment:                    Frozen Orbital(s)                        

    Hyperfine or Zeeman Interaction:   ---                                      



 =====================================
 S Y M M E T R Y ,   E L E C T R O N S
 =====================================
  
 Symmetry: ATOM

 Irreducible Representations, including subspecies
 -------------------------------------------------
 S
 P:x  P:y  P:z
 D:z2  D:x2-y2  D:xy  D:xz  D:yz
 F:z3  F:z  F:xyz  F:z2x  F:z2y  F:x  F:y


 Configuration of Valence Electrons
 ==================================

          Occupation Numbers
          -------------------------------------------------
 S        1
 P        0
 D        0
 F        0
          -------------------------------------------------

 Total:   1

 Net Charge: 0 (Nuclei minus Electrons)

 Preset values for MO occupations will be applied through SCF cycle no. 1000000
 Thereafter, the program will assign electrons to MOs that are spatially
 similar to the occupied MOs in a "reference" cycle ("KeepOrbitals").
 The reference cycle is always the PREVIOUS cycle: it will evolve with
 the SCF procedure.



 ================================
 (Slater-type)  F U N C T I O N S  ***  (Basis and Fit)  ***
 ================================
  

 Atom Type    1  (H)
 ==============

 Valence Basis Sets:   4
 -----------------------
   1 S    0.690000
   1 S    0.920000
   1 S    1.580000
   2 P    1.250000


 BAS: List of all Elementary Cartesian Basis Functions
 =====================================================

 The numbering in the list below (to the right of the function characteristics) is referred
 to in print-outs of MO eigenvectors and Mulliken populations in the BAS representation
 (as contrasted to the SFO representation).

 Notes:
 1. The functions are characterized by a polynomial prefactor (powers of x,y,z and r) and
    an exponential decay factor alpha.
 2. Since the basis sets are specific for an atom TYPE, the individual functions occur on
    all atoms of that type.
 3. The word 'Core' in the left margin signals that it is a Core Function (CF) : not a
    degree of freedom in the valence set, but only used to ensure orthogonalization of
    the other valence basis functions on the frozen Core Orbitals.


 (power of) X  Y  Z  R     Alpha  on Atom
            ==========     =====     ==========

 H                                    1
                                  ---------------------------------------------------------------------------
            0  0  0  0     0.690      1
            0  0  0  0     0.920      2
            0  0  0  0     1.580      3
            1  0  0  0     1.250      4
            0  1  0  0     1.250      5
            0  0  1  0     1.250      6

 Total number of charge fitting functions (nprimf)        50
 Total number of Cartesian basis functions (naos)          6
 Total number of Cartesian core functions  (ncos)          0



 BAS: List of all Elementary Cartesian Basis Functions
 =====================================================

 The numbering in the list below (to the right of the function characteristics) is referred
 to in print-outs of MO eigenvectors and Mulliken populations in the BAS representation
 (as contrasted to the SFO representation).

 Notes:
 1. The functions are characterized by a polynomial prefactor (powers of x,y,z and r) and
    an exponential decay factor alpha.
 2. Since the basis sets are specific for an atom TYPE, the individual functions occur on
    all atoms of that type.
 3. The word 'Core' in the left margin signals that it is a Core Function (CF) : not a
    degree of freedom in the valence set, but only used to ensure orthogonalization of
    the other valence basis functions on the frozen Core Orbitals.


 (power of) X  Y  Z  R     Alpha  on Atom
            ==========     =====     ==========

 H                                    1
                                  ---------------------------------------------------------------------------
            0  0  0  0     0.690      1
            0  0  0  0     0.920      2
            0  0  0  0     1.580      3
            1  0  0  0     1.250      4
            0  1  0  0     1.250      5
            0  0  1  0     1.250      6
1
 ***************************************************************************************************



                                              ***********************
                                              *  T E C H N I C A L  *
                                              ***********************
  



 =============================================================
 P A R A L L E L I Z A T I O N  and  V E C T O R I Z A T I O N
 =============================================================
  
 Nr of parallel processes:                                1
 Maximum vector length in NumInt loops:                 128



 =====================
 S C F   U P D A T E S
 =====================
  
 Max. nr. of cycles:                               300
 Convergence criterion:                              0.0000000100
   secondary criterion:                              0.0000000100

 Mix parameter (when DIIS does not apply):           0.2000000000
 Special mix parameter for the first cycle:          1.0000000000
 Mixed ADIIS+SDIIS will be used                  
    Max number of expansion vectors:                10
    Pure ADIIS when Max([F,P]) is above              0.1000000000
    Pure SDIIS when Max([F,P]) is below              0.0010000000
 Automatic ElectronSmearing (in case of problematic SCF convergence) disabled



 =================
 P R E C I S I O N  ***  (General: NumInt, NeglectFunctionTails, ...)  ***
 =================
  

 NumInt:           Target precision:                12.0000000000
 -------           Initial precision:               10.0000000000
                   Min. precision (optimization):   10.0000000000

 Neglect Functions:          Basis functions:        0.1000000000E-13
 ------------------          Fit functions:          0.1000000000E-13



 ===========================
 L I N E A R   S C A L I N G
 ===========================
  

 Cut-off radii density fit:                        0.1000000000E-97
 Overlap cut-off criterion AO matrix elements:     0.1000000000E-97
 Cut-offs for Coulomb potential and fitted density:0.1000000000E-97
 Cut-off criterion for Coulomb multipole terms:    0.1000000000E-97
 Progressive Convergence parameter:                 0.000000000    
1
 ***************************************************************************************************



                                            ***************************
                                            *  C O M P U T A T I O N  *
                                            ***************************
  

 Number of elements of the density matrix on this node (used, total):        21        21



 ===========================================
 Numerical Integration : Fuzzy Cells (Becke)
 ===========================================
  
 Becke grid quality: VERYGOOD       
  
 Lebedev angular grid order:             min:  13 max:  41
 Nr. of radial points:                   min:  64 max:  64

 Total nr. of points:         64
 Nr. of blocks:                1
 Block length:                64
 Nr. of dummy points:          0


 Test of Precision of the Numerical Integration Grid
 ===================================================

 Integral of the Total Core Density:                   0.00000000000000



 ========================
 Density Fitting (zlmFit)
 ========================
  
 ZlmFit Fit Quality: VERYGOOD       
  
 Max L-expansion:                        min:   0 max:   0
 Nr. of radial interpolation points:     min: 120 max: 120



 =====
 S C F  ***  ScaSCF  ***
 =====
  

 CYCLE    1
 SCF Error: norm([F,P])=      0.000000000000, max([F,P])=      0.000000000000
 orbitals (Q,E):
 ---------------
 S :1...3            ( 1.00    -0.5000)  ( 0.00    -0.0900)  ( 0.00     1.2936)
 P :1...1            ( 0.00     0.1562)

 CYCLE    2
 SCF Error: norm([F,P])=      0.031537872292, max([F,P])=      0.030110494752
 orbitals (Q,E):
 ---------------
 S :1...2            ( 1.00    -0.2218)  ( 0.00     0.1019)
 P :1...1            ( 0.00     0.4189)

 CYCLE    3
  SDIIS (wt  0.000):  0.1996  0.8004
 A-DIIS (wt  1.000):  0.0000  1.0000
  DIIS coefficients:  0.0000  1.0000
 SCF Error: norm([F,P])=      0.008617989401, max([F,P])=      0.008343029399
 orbitals (Q,E):
 ---------------
 S :1...2            ( 1.00    -0.2422)  ( 0.00     0.0889)
 P :1...1            ( 0.00     0.4024)

 CYCLE    4
  SDIIS (wt  0.993):  0.1666  0.8334
 A-DIIS (wt  0.007):  0.0000  1.0000
  DIIS coefficients:  0.1654  0.8346
 SCF Error: norm([F,P])=      0.001732350026, max([F,P])=      0.001718616814
 orbitals (Q,E):
 ---------------
 S :1...2            ( 1.00    -0.2385)  ( 0.00     0.0908)
 P :1...1            ( 0.00     0.4054)

 CYCLE    5
  SDIIS (wt  1.000):  0.0236  0.9764
  DIIS coefficients:  0.0236  0.9764
 SCF Error: norm([F,P])=      0.000043673449, max([F,P])=      0.000039769875
 orbitals (Q,E):
 ---------------
 S :1...2            ( 1.00    -0.2386)  ( 0.00     0.0908)
 P :1...1            ( 0.00     0.4054)

 CYCLE    6
  SDIIS (wt  1.000): -0.0577  1.0577
  DIIS coefficients: -0.0577  1.0577
 SCF Error: norm([F,P])=      0.000002383805, max([F,P])=      0.000002158128
 orbitals (Q,E):
 ---------------
 S :1...2            ( 1.00    -0.2386)  ( 0.00     0.0908)
 P :1...1            ( 0.00     0.4054)

 CYCLE    7
  SDIIS (wt  1.000): -0.0032  1.0032
  DIIS coefficients: -0.0032  1.0032
 SCF Error: norm([F,P])=      0.000000007721, max([F,P])=      0.000000007228
 orbitals (Q,E):
 ---------------
 S :1...2            ( 1.00    -0.2386)  ( 0.00     0.0908)
 P :1...1            ( 0.00     0.4054)

 SCF CONVERGED

 CYCLE    8
1
 ***************************************************************************************************



                                                *******************
                                                *  R E S U L T S  *
                                                *******************
  
 *** Using FIT density in Focky
  SDIIS (wt  1.000):  0.0192  0.9808
  DIIS coefficients:  0.0192  0.9808
 SCF Error: norm([F,P])=      0.000000000151, max([F,P])=      0.000000000141

 Scaled ZORA Orbital Energies, per Irrep and Spin:
 =================================================
                        Occup              E (au)              E (eV)       Diff (eV) with prev. cycle
                        -----      --------------------        ------       --------------------------
 S
               1        1.000     -0.23861775226993E+00        -6.493               7.43E-09
               2        0.000      0.90791701709251E-01         2.471
               3        0.000      0.15217530108908E+01        41.409
 P
               1        0.000      0.40537978060393E+00        11.031


 Partially Occupied:
               1 S                -0.23861775226993E+00
  
 LUMO :        2 S                 0.90791701709251E-01
  


 Orbital Energies, all Irreps
 ========================================

 Irrep        no.  (spin)   Occup              E (au)                E (eV)
 ---------------------------------------------------------------------------
 S             1             1.00       -0.23861775226993E+00        -6.4931
 S             2             0.00        0.90791701709251E-01         2.4706
 P             1             0.00        0.40537978060393E+00        11.0309
 S             3             0.00        0.15217530108908E+01        41.4090


 All Electron Calculation, thus no Orbital Energies of the Core Orbitals are calculated



 =======================================
 M U L L I K E N   P O P U L A T I O N S
 =======================================
  
 The survey below gives for each atom:
 a) the total charge (Z minus electrons)
 b) the net spin polarization (nr of electrons spin-A minus spin-B)
 c) for each spin the atomic electron valence density (integrated) per L-value.

 Atom              Charge    Spin density          S         P         D         F
 ----              ------    ------------       ------    ------    ------    ------
 1 H              -0.0000                       1.0000    0.0000    0.0000    0.0000

 Populations of individual BAS functions
 ----------------------------------------
 1 H            0.2104  0.6788  0.1107  0.0000  0.0000  0.0000

 Gross Charges per Atom (Z minus electrons)
 ==========================================
            -0.0000
 Net Total: -0.00000000



 =======================================================================
 Electrostatic potential at the Nuclei due to electrons and other nuclei
 =======================================================================
  
         Atom                  Potential
         ----                  ---------
     1)   H                   0.94468022
 
 
 ========================
 No memory problems found
 ========================
 
 Maximum number of active allocate calls:         306
 
 *******************************************************************************

                             A D F   E X I T
 NORMAL TERMINATION



 =================
 Timing Statistics
 =================
  
 Total Used :                     CPU=        0.34      System=        0.02     Elapsed=        0.38

 Calls  Section                     ( Mean, Percentage )
 ---------------------------------------------------------------------------------------------------
     3  ><      ................      0.00    1.19             0.00    0.00             0.00    1.02
     1  INIT    ................      0.07   21.43             0.00   20.00             0.08   20.38
     1  GEOMET  ................      0.02    4.76             0.00    0.00             0.02    6.03
     1  INPUTA  ................      0.00    1.19             0.00    0.00             0.00    0.88
     1  MAINSY  ................      0.01    2.38             0.00    0.00             0.01    3.26
     1  SYMFIT  ................      0.00    0.00             0.00    0.00             0.00    0.43
     1  CORORT  ................      0.00    1.19             0.00    0.00             0.00    0.32
     1  SYMORB  ................      0.00    0.00             0.00    0.00             0.00    0.19
     1  CLSMAT  ................      0.00    1.19             0.00    0.00             0.01    1.36
     1  ORTHON  ................      0.00    1.19             0.00    0.00             0.00    1.23
     1  GENPT   ................      0.01    3.57             0.00    0.00             0.01    3.28
     1  PTBAS   ................      0.00    1.19             0.00    0.00             0.01    1.35
     8  FOCKY   ................      0.02   44.05             0.00   80.00             0.02   44.69
     8  FOCKTR  ................      0.00    3.57             0.00    0.00             0.00    1.25
     8  SDIIS   ................      0.00    4.76             0.00    0.00             0.00    5.60
     1  COREPS  ................      0.01    3.57             0.00    0.00             0.01    3.69
     1  POPAN   ................      0.00    1.19             0.00    0.00             0.00    1.22
     1  DEBYE   ................      0.00    0.00             0.00    0.00             0.00    0.48
     1  EXIT PROCEDURE .........      0.01    3.57             0.00    0.00             0.01    3.35


 Currently Open Files (EXIT00)
 ====================

 Unit    Access Format  Status   Type       Ident (file)
 -------------------------------------------------------
   3      SEQ    FORM   TRANSP  NORMAL      LOGFILE
                                          ( logfile )

 ***************************************************************************************************
 (LOGFILE)
 <Sep08-2020> <06:13:00>  DIRAC 2019  RunTime: Sep08-2020 06:13:00  Nodes: 1  Procs: 1
 <Sep08-2020> <06:13:00>  NORMAL TERMINATION
 <Sep08-2020> <06:13:00>  END
 <Sep08-2020> <06:13:01>  ADF 2019  RunTime: Sep08-2020 06:13:01  Nodes: 1  Procs: 1
 <Sep08-2020> <06:13:01>  Hydrogen (TZP)
 <Sep08-2020> <06:13:01>  RunType   : CREATE
 <Sep08-2020> <06:13:01>  Net Charge: 0 (Nuclei minus Electrons)
 <Sep08-2020> <06:13:01>  Symmetry  : ATOM
  Coordinates
    Atom         X           Y           Z   (Angstrom)
    1.H         0.000000    0.000000    0.000000
 <Sep08-2020> <06:13:01>  >>>> CORORT
 <Sep08-2020> <06:13:01>  >>>> CLSMAT
 <Sep08-2020> <06:13:01>  >>>> ORTHON
 <Sep08-2020> <06:13:01>  >>>> GENPT
 <Sep08-2020> <06:13:01>  Block Length=  64
 <Sep08-2020> <06:13:01>  >>>> PTBAS
 <Sep08-2020> <06:13:01>  >>>> CYCLE
 <Sep08-2020> <06:13:01>              |Error|         MaxErr       Wt(A-DIIS)
 <Sep08-2020> <06:13:01>      1      0.00000000      0.00000000
 <Sep08-2020> <06:13:01>      2      0.03153787      0.03011049
 <Sep08-2020> <06:13:01>      3      0.00861799      0.00834303    100.0
 <Sep08-2020> <06:13:01>      4      0.00173235      0.00171862      0.7
 <Sep08-2020> <06:13:01>      5      0.00004367      0.00003977      0.0
 <Sep08-2020> <06:13:01>      6      0.00000238      0.00000216      0.0
 <Sep08-2020> <06:13:01>      7      0.00000001      0.00000001      0.0
 <Sep08-2020> <06:13:01>  SCF converged
 <Sep08-2020> <06:13:01>      8      0.00000000      0.00000000      0.0
 <Sep08-2020> <06:13:01>  >>>> POPAN
 <Sep08-2020> <06:13:01>  >>>> DEBYE
 <Sep08-2020> <06:13:01>  NORMAL TERMINATION
 <Sep08-2020> <06:13:01>  END

 *******************************************************************************
 *                                                                             *
 *  -------------------------------------                                      *
 *   Amsterdam Density Functional  (ADF)         2019                          *
 *  -------------------------------------                                      *
 *                                               r79301 2019-11-09             *
 *                                                                             *
 *                                                                             *
 *                            =====================                            *
 *                            |                   |                            *
 *                            |     D I R A C     |                            *
 *                            |                   |                            *
 *                            =====================                            *
 *                                                                             *
 *                                                                             *
 *   Online information and documentation:  https://www.scm.com/support/       *
 *   E-mail:  support@scm.com   info@scm.com                                   *
 *                                                                             *
 *   Scientific publications using ADF results must be properly referenced     *
 *   See the User Manuals (or the web site) for recommended citations          *
 *   The terms and conditions of the End User License Agreement apply to       *
 *   the use of ADF, https://www.scm.com/license-terms/                        *
 *                                                                             *
 **********************  x86_64_linux_intel / intelmpi  ************************
 
 
 
  
 DIRAC 2019  RunTime: Sep08-2020 06:13:01  Nodes: 1  Procs: 1

 Temporary files are created in /scratch/kid_0.1299777794 (0x58465342)

1
 OXYGEN ATOM 1s CORE RELATIVISTIC, Point Nuc, A and c from li
 N J RN H ZN XION ANUC CLIGHT
 5000    4100.00000000197.36710137  8.00000000  0.00000000   15.994914  0.1370360E+03
  PH   PHI     EPS        DEL        DELRVR
  0.30  0.30     2500.00  0.00001000  0.00001000
 IDIRC  NC1  NDEBU NPRIN  IPUN IRCOR IWCOR
   1   300     0     0     0     0     1
   XALPHA      XLATTER      RNUC
  0.70000000  0.00000000  0.00000000 Point Charge
   XN   XL   XJ      XE          XZ      XDELL
  1.0  0.0  0.5      -5.000       2.000     0.00000
  2.0  0.0  0.5      -1.000       2.000     0.00000
  2.0  1.0  0.5      -1.000       2.000     0.00000
  2.0  1.0  1.5      -1.000       2.000     0.00000
 ICORP=  0  NPCL=  0  DEMP=0.00  PEPS=0.000000
 R(1)=  0.1000000E-08 D=  0.1005080E+01 RNUC=  0.0000000E+00
 converged at cycle   28  DENSITY AVERAGING    0.2400
  MAXIMUM ERROR IN R.V(R) IS   0.81125670E-05
 Q,EY,EV,EZ,ESUM,ETOT,RHO  0.800000E+01 -0.101247E+02 -0.114961E+03 -0.177573E+03 -0.405053E+02 -0.743427E+02  0.414766E-14


 DIRAC CALCULATION
1                    OXYGEN ATOM 1s CORE RELATIVISTIC, Point Nuc, A and c from libtc


 EXCHANGE COEFFICIENT=  0.7000000           TAIL CORRECTION=  0.           NUCLEAR RADIUS=  0.000E+00
0                       ORBITAL    N    L    J     ELECTRONS     EIGENVALUE                DELTA OF EIGENV.

                          1S1/2  1.0  0.0  0.5     2.000       -0.1880014E+02                 0.7264358E-06
                          2S1/2  2.0  0.0  0.5     2.000       -0.8412236E+00                 0.5932752E-05
                          2P1/2  2.0  1.0  0.5     2.000       -0.3063203E+00                 0.5998471E-05
                          2P3/2  2.0  1.0  1.5     2.000       -0.3049609E+00                 0.5986971E-05


                                        NUCLEAR CHARGE=    8.000000
                            INTEGRAL OF CHARGE DENSITY=    8.000000
                           SUM OF THE ORBITAL ENERGIES=    -40.5053
                                          TOTAL ENERGY=    -74.3427
                                        KINETIC ENERGY=     74.4552
                             NUCLEAR ATTRACTION ENERGY=   -177.5730
                             ELECTRON REPULSION ENERGY=     36.3686
                                       EXCHANGE ENERGY=     -7.5935

 *******************************************************************************

                             D I R A C   E X I T
 NORMAL TERMINATION



 =================
 Timing Statistics
 =================
  
 Total Used :                     CPU=        0.10      System=        0.01     Elapsed=        0.11

 Calls  Section                     ( Mean, Percentage )
 ---------------------------------------------------------------------------------------------------
     2  ><      ................      0.00    0.00             0.00    0.00             0.00    0.01
     1  EXIT PROCEDURE .........      0.10  100.00             0.01  100.00             0.11   99.99


 Currently Open Files (EXIT00)
 ====================

 Unit    Access Format  Status   Type       Ident (file)
 -------------------------------------------------------
   3      SEQ    FORM   TRANSP  NORMAL      LOGFILE
                                          ( logfile )
 
Create O   file=TZP-O.1s
XC
  GGA PBE
End
relativistic ZORA
Corepotentials t12.rel
End

 *******************************************************************************
 *                                                                             *
 *  -------------------------------------                                      *
 *   Amsterdam Density Functional  (ADF)         2019                          *
 *  -------------------------------------                                      *
 *                                               r79301 2019-11-09             *
 *                                                                             *
 *                                                                             *
 *                              =================                              *
 *                              |               |                              *
 *                              |     A D F     |                              *
 *                              |               |                              *
 *                              =================                              *
 *                                                                             *
 *                                                                             *
 *   Online information and documentation:  https://www.scm.com/support/       *
 *   E-mail:  support@scm.com   info@scm.com                                   *
 *                                                                             *
 *   Scientific publications using ADF results must be properly referenced     *
 *   See the User Manuals (or the web site) for recommended citations          *
 *   The terms and conditions of the End User License Agreement apply to       *
 *   the use of ADF, https://www.scm.com/license-terms/                        *
 *                                                                             *
 **********************  x86_64_linux_intel / intelmpi  ************************
 
 
 
  
 ADF 2019  RunTime: Sep08-2020 06:13:01  Nodes: 1  Procs: 1

 Temporary files are created in /scratch/kid_0.691595737 (0x58465342)

 Oxygen (TZP, 1s frozen)



 ===========================
 A T T A C H E D   F I L E S
 ===========================
  
 CREATE - Data File:    TZP-O.1s
                        Oxygen (TZP, 1s frozen)
 Core Potentials:
         file : t12.rel



 ===============================
 M O D E L   P A R A M E T E R S
 ===============================
  
 DENSITY FUNCTIONAL POTENTIAL (scf)
    LDA:                               PW92                                    == Not Default ==
    Gradient Corrections:              PBEc PBEx                               == Not Default ==

 SPIN  (restricted / unrestr.)
    Molecule:                          Restricted                               

 OTHER ASPECTS
    Relativistic Corrections:          scalar (ZORA,MAPA)                      == Not Default ==

    Nuclear Charge Density Model:      Point Charge Nuclei                      
    Core Treatment:                    Frozen Orbital(s)                        

    Hyperfine or Zeeman Interaction:   ---                                      



 =====================================
 S Y M M E T R Y ,   E L E C T R O N S
 =====================================
  
 Symmetry: ATOM

 Irreducible Representations, including subspecies
 -------------------------------------------------
 S
 P:x  P:y  P:z
 D:z2  D:x2-y2  D:xy  D:xz  D:yz
 F:z3  F:z  F:xyz  F:z2x  F:z2y  F:x  F:y


 Configuration of Valence Electrons
 ==================================

          Occupation Numbers
          -------------------------------------------------
 S        2
 P        4
 D        0
 F        0
          -------------------------------------------------

 Total:   6

 Net Charge: 0 (Nuclei minus Electrons)

 Preset values for MO occupations will be applied through SCF cycle no. 1000000
 Thereafter, the program will assign electrons to MOs that are spatially
 similar to the occupied MOs in a "reference" cycle ("KeepOrbitals").
 The reference cycle is always the PREVIOUS cycle: it will evolve with
 the SCF procedure.



 ================================
 (Slater-type)  F U N C T I O N S  ***  (Basis and Fit)  ***
 ================================
  

 Atom Type    1  (O)
 ==============

 Valence Basis Sets:   8
 -----------------------
   1 S    7.360000
   2 S    1.720000
   2 S    2.880000
   2 S    7.580000
   2 P    1.120000
   2 P    2.080000
   2 P    4.080000
   3 D    2.000000

 Frozen Core Shells
 ------------------
    S:  1


 BAS: List of all Elementary Cartesian Basis Functions
 =====================================================

 The numbering in the list below (to the right of the function characteristics) is referred
 to in print-outs of MO eigenvectors and Mulliken populations in the BAS representation
 (as contrasted to the SFO representation).

 Notes:
 1. The functions are characterized by a polynomial prefactor (powers of x,y,z and r) and
    an exponential decay factor alpha.
 2. Since the basis sets are specific for an atom TYPE, the individual functions occur on
    all atoms of that type.
 3. The word 'Core' in the left margin signals that it is a Core Function (CF) : not a
    degree of freedom in the valence set, but only used to ensure orthogonalization of
    the other valence basis functions on the frozen Core Orbitals.


 (power of) X  Y  Z  R     Alpha  on Atom
            ==========     =====     ==========

 O                                    1
                                  ---------------------------------------------------------------------------
    Core    0  0  0  0     7.360      1
            0  0  0  1     1.720      2
            0  0  0  1     2.880      3
            0  0  0  1     7.580      4
            1  0  0  0     1.120      5
            0  1  0  0     1.120      6
            0  0  1  0     1.120      7
            1  0  0  0     2.080      8
            0  1  0  0     2.080      9
            0  0  1  0     2.080     10
            1  0  0  0     4.080     11
            0  1  0  0     4.080     12
            0  0  1  0     4.080     13
            2  0  0  0     2.000     14
            1  1  0  0     2.000     15
            1  0  1  0     2.000     16
            0  2  0  0     2.000     17
            0  1  1  0     2.000     18
            0  0  2  0     2.000     19

 Total number of charge fitting functions (nprimf)        82
 Total number of Cartesian basis functions (naos)         19
 Total number of Cartesian core functions  (ncos)          1



 BAS: List of all Elementary Cartesian Basis Functions
 =====================================================

 The numbering in the list below (to the right of the function characteristics) is referred
 to in print-outs of MO eigenvectors and Mulliken populations in the BAS representation
 (as contrasted to the SFO representation).

 Notes:
 1. The functions are characterized by a polynomial prefactor (powers of x,y,z and r) and
    an exponential decay factor alpha.
 2. Since the basis sets are specific for an atom TYPE, the individual functions occur on
    all atoms of that type.
 3. The word 'Core' in the left margin signals that it is a Core Function (CF) : not a
    degree of freedom in the valence set, but only used to ensure orthogonalization of
    the other valence basis functions on the frozen Core Orbitals.


 (power of) X  Y  Z  R     Alpha  on Atom
            ==========     =====     ==========

 O                                    1
                                  ---------------------------------------------------------------------------
    Core    0  0  0  0     7.360      1
            0  0  0  1     1.720      2
            0  0  0  1     2.880      3
            0  0  0  1     7.580      4
            1  0  0  0     1.120      5
            0  1  0  0     1.120      6
            0  0  1  0     1.120      7
            1  0  0  0     2.080      8
            0  1  0  0     2.080      9
            0  0  1  0     2.080     10
            1  0  0  0     4.080     11
            0  1  0  0     4.080     12
            0  0  1  0     4.080     13
            2  0  0  0     2.000     14
            1  1  0  0     2.000     15
            1  0  1  0     2.000     16
            0  2  0  0     2.000     17
            0  1  1  0     2.000     18
            0  0  2  0     2.000     19
1
 ***************************************************************************************************



                                              ***********************
                                              *  T E C H N I C A L  *
                                              ***********************
  



 =============================================================
 P A R A L L E L I Z A T I O N  and  V E C T O R I Z A T I O N
 =============================================================
  
 Nr of parallel processes:                                1
 Maximum vector length in NumInt loops:                 128



 =====================
 S C F   U P D A T E S
 =====================
  
 Max. nr. of cycles:                               300
 Convergence criterion:                              0.0000000100
   secondary criterion:                              0.0000000100

 Mix parameter (when DIIS does not apply):           0.2000000000
 Special mix parameter for the first cycle:          1.0000000000
 Mixed ADIIS+SDIIS will be used                  
    Max number of expansion vectors:                10
    Pure ADIIS when Max([F,P]) is above              0.1000000000
    Pure SDIIS when Max([F,P]) is below              0.0010000000
 Automatic ElectronSmearing (in case of problematic SCF convergence) disabled



 =================
 P R E C I S I O N  ***  (General: NumInt, NeglectFunctionTails, ...)  ***
 =================
  

 NumInt:           Target precision:                12.0000000000
 -------           Initial precision:               10.0000000000
                   Min. precision (optimization):   10.0000000000

 Neglect Functions:          Basis functions:        0.1000000000E-13
 ------------------          Fit functions:          0.1000000000E-13



 ===========================
 L I N E A R   S C A L I N G
 ===========================
  

 Cut-off radii density fit:                        0.1000000000E-97
 Overlap cut-off criterion AO matrix elements:     0.1000000000E-97
 Cut-offs for Coulomb potential and fitted density:0.1000000000E-97
 Cut-off criterion for Coulomb multipole terms:    0.1000000000E-97
 Progressive Convergence parameter:                 0.000000000    
1
 ***************************************************************************************************



                                            ***************************
                                            *  C O M P U T A T I O N  *
                                            ***************************
  

 Number of elements of the density matrix on this node (used, total):       190       190



 ===========================================
 Numerical Integration : Fuzzy Cells (Becke)
 ===========================================
  
 Becke grid quality: VERYGOOD       
  
 Lebedev angular grid order:             min:  13 max:  41
 Nr. of radial points:                   min:  68 max:  68

 Total nr. of points:         68
 Nr. of blocks:                1
 Block length:                68
 Nr. of dummy points:          0


 Test of Precision of the Numerical Integration Grid
 ===================================================

 Integral of the Total Core Density:                   1.99999999865610
 Relative Error:                                      -6.720E-10



 ========================
 Density Fitting (zlmFit)
 ========================
  
 ZlmFit Fit Quality: VERYGOOD       
  
 Max L-expansion:                        min:   0 max:   0
 Nr. of radial interpolation points:     min: 140 max: 140



 =====
 S C F  ***  ScaSCF  ***
 =====
  

 CYCLE    1
 SCF Error: norm([F,P])=      0.000000000000, max([F,P])=      0.000000000000
 orbitals (Q,E):
 ---------------
 S :1...3            ( 2.00    -5.3654)  ( 0.00    -2.2073)  ( 0.00    23.6692)
 P :1...3            ( 4.00    -5.0045)  ( 0.00    -2.0150)  ( 0.00    -0.3846)
 D :1...1            ( 0.00    -2.0410)

 CYCLE    2
 SCF Error: norm([F,P])=      4.562993374873, max([F,P])=      2.528971113813
 orbitals (Q,E):
 ---------------
 S :1...2            ( 2.00    -0.1548)  ( 0.00     1.6948)
 P :1...2            ( 4.00     0.1773)  ( 0.00     0.9552)
 D :1...1            ( 0.00     1.4649)

 CYCLE    3
  SDIIS (wt  0.000):  0.3378  0.6622
 A-DIIS (wt  1.000):  0.4814  0.5186
  DIIS coefficients:  0.4814  0.5186
 SCF Error: norm([F,P])=      2.723155250500, max([F,P])=      1.798667049295
 orbitals (Q,E):
 ---------------
 S :1...2            ( 2.00    -1.1093)  ( 0.00     0.7549)
 P :1...2            ( 4.00    -0.5518)  ( 0.00     0.2590)
 D :1...1            ( 0.00     0.8910)

 CYCLE    4
  SDIIS (wt  0.000):  0.0919  0.9081
 A-DIIS (wt  1.000):  0.0000  1.0000
  DIIS coefficients:  0.0000  1.0000
 SCF Error: norm([F,P])=      0.289027138405, max([F,P])=      0.130648623511
 orbitals (Q,E):
 ---------------
 S :1...2            ( 2.00    -0.7707)  ( 0.00     0.9912)
 P :1...2            ( 4.00    -0.2284)  ( 0.00     0.4046)
 D :1...1            ( 0.00     1.1288)

 CYCLE    5
  SDIIS (wt  0.000):  0.0260  0.6740  0.3001
 A-DIIS (wt  1.000):  0.0000  0.5764  0.4236
  DIIS coefficients:  0.0000  0.5764  0.4236
 SCF Error: norm([F,P])=      0.416615089426, max([F,P])=      0.232643669786
 orbitals (Q,E):
 ---------------
 S :1...2            ( 2.00    -0.8764)  ( 0.00     0.9107)
 P :1...2            ( 4.00    -0.3280)  ( 0.00     0.3557)
 D :1...1            ( 0.00     1.0703)

 CYCLE    6
  SDIIS (wt  0.942):  0.0005  0.0237 -0.0203  0.9960
 A-DIIS (wt  0.058):  0.0000  0.0000  0.0000  1.0000
  DIIS coefficients:  0.0005  0.0224 -0.0191  0.9962
 SCF Error: norm([F,P])=      0.013723272809, max([F,P])=      0.006719036732
 orbitals (Q,E):
 ---------------
 S :1...2            ( 2.00    -0.8830)  ( 0.00     0.9058)
 P :1...2            ( 4.00    -0.3343)  ( 0.00     0.3521)
 D :1...1            ( 0.00     1.0657)

 CYCLE    7
  SDIIS (wt  1.000): -0.0000  0.0016  0.0023  0.0424  0.9537
  DIIS coefficients: -0.0000  0.0016  0.0023  0.0424  0.9537
 SCF Error: norm([F,P])=      0.001103645928, max([F,P])=      0.000634039171
 orbitals (Q,E):
 ---------------
 S :1...2            ( 2.00    -0.8827)  ( 0.00     0.9060)
 P :1...2            ( 4.00    -0.3340)  ( 0.00     0.3523)
 D :1...1            ( 0.00     1.0659)

 CYCLE    8
  SDIIS (wt  1.000): -0.0000 -0.0001  0.0000 -0.0032  0.0268  0.9765
  DIIS coefficients: -0.0000 -0.0001  0.0000 -0.0032  0.0268  0.9765
 SCF Error: norm([F,P])=      0.000035919805, max([F,P])=      0.000020263970
 orbitals (Q,E):
 ---------------
 S :1...2            ( 2.00    -0.8827)  ( 0.00     0.9060)
 P :1...2            ( 4.00    -0.3340)  ( 0.00     0.3522)
 D :1...1            ( 0.00     1.0659)

 CYCLE    9
  SDIIS (wt  1.000): -0.0000  0.0008  0.0188  0.9804
  DIIS coefficients: -0.0000  0.0008  0.0188  0.9804
 SCF Error: norm([F,P])=      0.000000326384, max([F,P])=      0.000000183924
 orbitals (Q,E):
 ---------------
 S :1...2            ( 2.00    -0.8827)  ( 0.00     0.9060)
 P :1...2            ( 4.00    -0.3340)  ( 0.00     0.3522)
 D :1...1            ( 0.00     1.0659)

 CYCLE   10
  SDIIS (wt  1.000):  0.0000  0.0003  0.9996
  DIIS coefficients:  0.0000  0.0003  0.9996
 SCF Error: norm([F,P])=      0.000000000559, max([F,P])=      0.000000000306
 orbitals (Q,E):
 ---------------
 S :1...2            ( 2.00    -0.8827)  ( 0.00     0.9060)
 P :1...2            ( 4.00    -0.3340)  ( 0.00     0.3522)
 D :1...1            ( 0.00     1.0659)

 SCF CONVERGED

 CYCLE   11
1
 ***************************************************************************************************



                                                *******************
                                                *  R E S U L T S  *
                                                *******************
  
 *** Using FIT density in Focky
  SDIIS (wt  1.000): -0.0000  0.0143  0.9857
  DIIS coefficients: -0.0000  0.0143  0.9857
 SCF Error: norm([F,P])=      0.000000000010, max([F,P])=      0.000000000006

 Scaled ZORA Orbital Energies, per Irrep and Spin:
 =================================================
                        Occup              E (au)              E (eV)       Diff (eV) with prev. cycle
                        -----      --------------------        ------       --------------------------
 S
               1        2.000     -0.88272313143209E+00       -24.020              -9.28E-11
               2        0.000      0.90601345014671E+00        24.654
               3        0.000      0.29578810816937E+02       804.880
 P
               1        4.000     -0.33400585272070E+00        -9.089              -8.94E-11
               2        0.000      0.35224911365993E+00         9.585
               3        0.000      0.38342927625315E+01       104.336
 D
               1        0.000      0.10658965783141E+01        29.005


 Partially Occupied:
               1 P                -0.33400585272070E+00
  
 HOMO :        1 S                -0.88272313143209E+00
 LUMO :        2 P                 0.35224911365993E+00
  


 Orbital Energies, all Irreps
 ========================================

 Irrep        no.  (spin)   Occup              E (au)                E (eV)
 ---------------------------------------------------------------------------
 S             1             2.00       -0.88272313143209E+00       -24.0201
 P             1             4.00       -0.33400585272070E+00        -9.0888
 P             2             0.00        0.35224911365993E+00         9.5852
 S             2             0.00        0.90601345014671E+00        24.6539
 D             1             0.00        0.10658965783141E+01        29.0045
 P             3             0.00        0.38342927625315E+01       104.3364
 S             3             0.00        0.29578810816937E+02       804.8804


 Scaled ZORA Orbital Energies of the Core Orbitals:
 ==================================================

 (Note that the atoms are grouped by atomtype, see the labels, and may hence NOT be in input order)

 AtomType  Orbital  Atom                   E (au)                        E (eV)
 --------  -------  ----           --------------------        ----------------
 O           1S        1          -0.18925919758629E+02                -515.000



 =======================================
 M U L L I K E N   P O P U L A T I O N S
 =======================================
  
 The survey below gives for each atom:
 a) the total charge (Z minus electrons)
 b) the net spin polarization (nr of electrons spin-A minus spin-B)
 c) for each spin the atomic electron valence density (integrated) per L-value.

 Atom              Charge    Spin density          S         P         D         F
 ----              ------    ------------       ------    ------    ------    ------
 1 O              -0.0000                       2.0000    4.0000    0.0000    0.0000

 Populations of individual BAS functions
 ----------------------------------------
 1 O            0.0005  0.9226  1.0966 -0.0196  0.3346  0.3346  0.3346  0.7512  0.7512  0.7512
                0.2476  0.2476  0.2476  0.0000  0.0000  0.0000  0.0000  0.0000  0.0000

 Gross Charges per Atom (Z minus electrons)
 ==========================================
            -0.0000
 Net Total: -0.00000000



 =======================================================================
 Electrostatic potential at the Nuclei due to electrons and other nuclei
 =======================================================================
  
         Atom                  Potential
         ----                  ---------
     1)   O                  22.20265662
 
 
 ========================
 No memory problems found
 ========================
 
 Maximum number of active allocate calls:         389
 
 *******************************************************************************

                             A D F   E X I T
 NORMAL TERMINATION



 =================
 Timing Statistics
 =================
  
 Total Used :                     CPU=        0.44      System=        0.01     Elapsed=        0.48

 Calls  Section                     ( Mean, Percentage )
 ---------------------------------------------------------------------------------------------------
     3  ><      ................      0.00    0.91             0.00    0.00             0.00    0.92
     1  INIT    ................      0.07   15.45             0.00   33.33             0.08   16.02
     1  GEOMET  ................      0.02    3.64             0.00   33.34             0.02    4.75
     1  INPUTA  ................      0.00    0.91             0.00    0.00             0.00    0.70
     1  MAINSY  ................      0.01    1.82             0.00    0.00             0.01    2.89
     1  SYMFIT  ................      0.00    0.91             0.00    0.00             0.00    0.34
     1  CORORT  ................      0.00    0.00             0.00    0.00             0.00    0.31
     1  SYMORB  ................      0.00    0.00             0.00    0.00             0.00    0.18
     1  CLSMAT  ................      0.00    0.91             0.00   33.33             0.01    1.20
     1  ORTHON  ................      0.01    1.82             0.00    0.00             0.01    1.08
     1  GENPT   ................      0.01    2.73             0.00    0.00             0.02    3.12
     1  PTBAS   ................      0.01    1.82             0.00    0.00             0.01    1.15
    11  FOCKY   ................      0.02   53.64             0.00    0.00             0.02   51.57
    11  FOCKTR  ................      0.00    1.82             0.00    0.00             0.00    1.57
    11  SDIIS   ................      0.00    5.45             0.00    0.00             0.00    6.27
     1  COREPS  ................      0.02    3.64             0.00    0.00             0.02    3.64
     1  POPAN   ................      0.00    0.91             0.00    0.00             0.01    1.13
     1  DEBYE   ................      0.00    0.91             0.00    0.00             0.00    0.40
     1  EXIT PROCEDURE .........      0.01    2.73             0.00    0.00             0.01    2.75


 Currently Open Files (EXIT00)
 ====================

 Unit    Access Format  Status   Type       Ident (file)
 -------------------------------------------------------
   3      SEQ    FORM   TRANSP  NORMAL      LOGFILE
                                          ( logfile )

 ***************************************************************************************************
 (LOGFILE)
 <Sep08-2020> <06:13:00>  DIRAC 2019  RunTime: Sep08-2020 06:13:00  Nodes: 1  Procs: 1
 <Sep08-2020> <06:13:00>  NORMAL TERMINATION
 <Sep08-2020> <06:13:00>  END
 <Sep08-2020> <06:13:01>  ADF 2019  RunTime: Sep08-2020 06:13:01  Nodes: 1  Procs: 1
 <Sep08-2020> <06:13:01>  Hydrogen (TZP)
 <Sep08-2020> <06:13:01>  RunType   : CREATE
 <Sep08-2020> <06:13:01>  Net Charge: 0 (Nuclei minus Electrons)
 <Sep08-2020> <06:13:01>  Symmetry  : ATOM
  Coordinates
    Atom         X           Y           Z   (Angstrom)
    1.H         0.000000    0.000000    0.000000
 <Sep08-2020> <06:13:01>  >>>> CORORT
 <Sep08-2020> <06:13:01>  >>>> CLSMAT
 <Sep08-2020> <06:13:01>  >>>> ORTHON
 <Sep08-2020> <06:13:01>  >>>> GENPT
 <Sep08-2020> <06:13:01>  Block Length=  64
 <Sep08-2020> <06:13:01>  >>>> PTBAS
 <Sep08-2020> <06:13:01>  >>>> CYCLE
 <Sep08-2020> <06:13:01>              |Error|         MaxErr       Wt(A-DIIS)
 <Sep08-2020> <06:13:01>      1      0.00000000      0.00000000
 <Sep08-2020> <06:13:01>      2      0.03153787      0.03011049
 <Sep08-2020> <06:13:01>      3      0.00861799      0.00834303    100.0
 <Sep08-2020> <06:13:01>      4      0.00173235      0.00171862      0.7
 <Sep08-2020> <06:13:01>      5      0.00004367      0.00003977      0.0
 <Sep08-2020> <06:13:01>      6      0.00000238      0.00000216      0.0
 <Sep08-2020> <06:13:01>      7      0.00000001      0.00000001      0.0
 <Sep08-2020> <06:13:01>  SCF converged
 <Sep08-2020> <06:13:01>      8      0.00000000      0.00000000      0.0
 <Sep08-2020> <06:13:01>  >>>> POPAN
 <Sep08-2020> <06:13:01>  >>>> DEBYE
 <Sep08-2020> <06:13:01>  NORMAL TERMINATION
 <Sep08-2020> <06:13:01>  END
 <Sep08-2020> <06:13:01>  DIRAC 2019  RunTime: Sep08-2020 06:13:01  Nodes: 1  Procs: 1
 <Sep08-2020> <06:13:01>  NORMAL TERMINATION
 <Sep08-2020> <06:13:01>  END
 <Sep08-2020> <06:13:01>  ADF 2019  RunTime: Sep08-2020 06:13:01  Nodes: 1  Procs: 1
 <Sep08-2020> <06:13:01>  Oxygen (TZP, 1s frozen)
 <Sep08-2020> <06:13:01>  RunType   : CREATE
 <Sep08-2020> <06:13:01>  Net Charge: 0 (Nuclei minus Electrons)
 <Sep08-2020> <06:13:01>  Symmetry  : ATOM
  Coordinates
    Atom         X           Y           Z   (Angstrom)
    1.O         0.000000    0.000000    0.000000
 <Sep08-2020> <06:13:01>  >>>> CORORT
 <Sep08-2020> <06:13:01>  >>>> CLSMAT
 <Sep08-2020> <06:13:01>  >>>> ORTHON
 <Sep08-2020> <06:13:01>  >>>> GENPT
 <Sep08-2020> <06:13:01>  Block Length=  68
 <Sep08-2020> <06:13:01>  >>>> PTBAS
 <Sep08-2020> <06:13:01>  >>>> CYCLE
 <Sep08-2020> <06:13:01>              |Error|         MaxErr       Wt(A-DIIS)
 <Sep08-2020> <06:13:01>      1      0.00000000      0.00000000
 <Sep08-2020> <06:13:01>      2      4.56299337      2.52897111
 <Sep08-2020> <06:13:01>      3      2.72315525      1.79866705    100.0
 <Sep08-2020> <06:13:01>      4      0.28902714      0.13064862    100.0
 <Sep08-2020> <06:13:01>      5      0.41661509      0.23264367    100.0
 <Sep08-2020> <06:13:01>      6      0.01372327      0.00671904      5.8
 <Sep08-2020> <06:13:01>      7      0.00110365      0.00063404      0.0
 <Sep08-2020> <06:13:01>      8      0.00003592      0.00002026      0.0
 <Sep08-2020> <06:13:01>      9      0.00000033      0.00000018      0.0
 <Sep08-2020> <06:13:02>     10      0.00000000      0.00000000      0.0
 <Sep08-2020> <06:13:02>  SCF converged
 <Sep08-2020> <06:13:02>     11      0.00000000      0.00000000      0.0
 <Sep08-2020> <06:13:02>  >>>> POPAN
 <Sep08-2020> <06:13:02>  >>>> DEBYE
 <Sep08-2020> <06:13:02>  NORMAL TERMINATION
 <Sep08-2020> <06:13:02>  END

 *******************************************************************************
 *                                                                             *
 *  -------------------------------------                                      *
 *   Amsterdam Density Functional  (ADF)         2019                          *
 *  -------------------------------------                                      *
 *                                               r79301 2019-11-09             *
 *                                                                             *
 *                                                                             *
 *                            =====================                            *
 *                            |                   |                            *
 *                            |     D I R A C     |                            *
 *                            |                   |                            *
 *                            =====================                            *
 *                                                                             *
 *                                                                             *
 *   Online information and documentation:  https://www.scm.com/support/       *
 *   E-mail:  support@scm.com   info@scm.com                                   *
 *                                                                             *
 *   Scientific publications using ADF results must be properly referenced     *
 *   See the User Manuals (or the web site) for recommended citations          *
 *   The terms and conditions of the End User License Agreement apply to       *
 *   the use of ADF, https://www.scm.com/license-terms/                        *
 *                                                                             *
 **********************  x86_64_linux_intel / intelmpi  ************************
 
 
 
  
 DIRAC 2019  RunTime: Sep08-2020 06:13:02  Nodes: 1  Procs: 1

 Temporary files are created in /scratch/kid_0.961320510 (0x58465342)

1
 TUNGSTEN ATOM 4d CORE RELATIVISTIC, Point Nuc, A and c from 
 N J RN H ZN XION ANUC CLIGHT
 5000   22100.00000000197.36710137 74.00000000  0.00000000  183.950932  0.1370360E+03
  PH   PHI     EPS        DEL        DELRVR
  0.30  0.30     2500.00  0.00001000  0.00001000
 IDIRC  NC1  NDEBU NPRIN  IPUN IRCOR IWCOR
   1   300     0     0     0     0    14
   XALPHA      XLATTER      RNUC
  0.70000000  0.00000000  0.00000000 Point Charge
   XN   XL   XJ      XE          XZ      XDELL
  1.0  0.0  0.5   -2600.000       2.000     0.00000
  2.0  0.0  0.5    -425.000       2.000     0.00000
  2.0  1.0  0.5    -425.000       2.000     0.00000
  2.0  1.0  1.5    -425.000       4.000     0.00000
  3.0  0.0  0.5    -100.000       2.000     0.00000
  3.0  1.0  0.5    -100.000       2.000     0.00000
  3.0  1.0  1.5    -100.000       4.000     0.00000
  3.0  2.0  1.5     -80.000       4.000     0.00000
  3.0  2.0  2.5     -80.000       6.000     0.00000
  4.0  0.0  0.5     -22.000       2.000     0.00000
  4.0  1.0  0.5     -20.000       2.000     0.00000
  4.0  1.0  1.5     -20.000       4.000     0.00000
  4.0  2.0  1.5     -11.000       4.000     0.00000
  4.0  2.0  2.5     -11.000       6.000     0.00000
  4.0  3.0  2.5      -1.000       6.000     0.00000
  4.0  3.0  3.5      -1.000       8.000     0.00000
  5.0  0.0  0.5      -3.000       2.000     0.00000
  5.0  1.0  0.5      -2.200       2.000     0.00000
  5.0  1.0  1.5      -2.200       4.000     0.00000
  5.0  2.0  1.5      -0.500       4.000     0.00000
  5.0  2.0  2.5      -0.500       0.000     0.00000
  6.0  0.0  0.5      -0.200       2.000     0.00000
 ICORP=  0  NPCL=  0  DEMP=0.00  PEPS=0.000000
 R(1)=  0.1000000E-08 D=  0.1005080E+01 RNUC=  0.0000000E+00
 converged at cycle   63  DENSITY AVERAGING    0.1536
  MAXIMUM ERROR IN R.V(R) IS   0.78838062E-05
 Q,EY,EV,EZ,ESUM,ETOT,RHO  0.740000E+02 -0.431420E+03 -0.281568E+05 -0.403919E+05 -0.993885E+04 -0.161643E+05  0.726391E-09


 DIRAC CALCULATION
1                    TUNGSTEN ATOM 4d CORE RELATIVISTIC, Point Nuc, A and c from libtc


 EXCHANGE COEFFICIENT=  0.7000000           TAIL CORRECTION=  0.           NUCLEAR RADIUS=  0.000E+00
0                       ORBITAL    N    L    J     ELECTRONS     EIGENVALUE                DELTA OF EIGENV.

                          1S1/2  1.0  0.0  0.5     2.000       -0.2549514E+04                 0.5980248E-04
                          2S1/2  2.0  0.0  0.5     2.000       -0.4399118E+03                 0.5052420E-04
                          2P1/2  2.0  1.0  0.5     2.000       -0.4208427E+03                 0.5265062E-04
                          2P3/2  2.0  1.0  1.5     4.000       -0.3711192E+03                 0.5139441E-04
                          3S1/2  3.0  0.0  0.5     2.000       -0.1012881E+03                 0.3437035E-04
                          3P1/2  3.0  1.0  0.5     2.000       -0.9277148E+02                 0.3553128E-04
                          3P3/2  3.0  1.0  1.5     4.000       -0.8201733E+02                 0.3404634E-04
                          3D3/2  3.0  2.0  1.5     4.000       -0.6762803E+02                 0.3680712E-04
                          3D5/2  3.0  2.0  2.5     6.000       -0.6528623E+02                 0.3629511E-04
                          4S1/2  4.0  0.0  0.5     2.000       -0.2084139E+02                 0.1939427E-04
                          4P1/2  4.0  1.0  0.5     2.000       -0.1730737E+02                 0.1933978E-04
                          4P3/2  4.0  1.0  1.5     4.000       -0.1480597E+02                 0.1810922E-04
                          4D3/2  4.0  2.0  1.5     4.000       -0.8989319E+01                 0.1779394E-04
                          4D5/2  4.0  2.0  2.5     6.000       -0.8528007E+01                 0.1741170E-04
                          4F5/2  4.0  3.0  2.5     6.000       -0.1237480E+01                 0.1544089E-04
                          4F7/2  4.0  3.0  3.5     8.000       -0.1154634E+01                 0.1522033E-04
                          5S1/2  5.0  0.0  0.5     2.000       -0.2863514E+01                 0.7979521E-05
                          5P1/2  5.0  1.0  0.5     2.000       -0.1813289E+01                 0.7246225E-05
                          5P3/2  5.0  1.0  1.5     4.000       -0.1448762E+01                 0.6602120E-05
                          5D3/2  5.0  2.0  1.5     4.000       -0.1486933E+00                 0.3973088E-05
                          5D5/2  5.0  2.0  2.5     0.000       -0.1223153E+00                 0.3735081E-05
                          6S1/2  6.0  0.0  0.5     2.000       -0.1847434E+00                 0.1808440E-05


                                        NUCLEAR CHARGE=   74.000000
                            INTEGRAL OF CHARGE DENSITY=   74.000000
                           SUM OF THE ORBITAL ENERGIES=  -9938.8529
                                          TOTAL ENERGY= -16164.2530
                                        KINETIC ENERGY=  18217.9700
                             NUCLEAR ATTRACTION ENERGY= -40391.9132
                             ELECTRON REPULSION ENERGY=   6333.2551
                                       EXCHANGE ENERGY=   -323.5649

 *******************************************************************************

                             D I R A C   E X I T
 NORMAL TERMINATION



 =================
 Timing Statistics
 =================
  
 Total Used :                     CPU=        0.68      System=        0.00     Elapsed=        0.69

 Calls  Section                     ( Mean, Percentage )
 ---------------------------------------------------------------------------------------------------
     2  ><      ................      0.00    0.00             0.00    0.00             0.00    0.00
     1  EXIT PROCEDURE .........      0.68  100.00             0.00  100.00             0.69  100.00


 Currently Open Files (EXIT00)
 ====================

 Unit    Access Format  Status   Type       Ident (file)
 -------------------------------------------------------
   3      SEQ    FORM   TRANSP  NORMAL      LOGFILE
                                          ( logfile )
 
Create W   file=TZP-W.4d
XC
  GGA PBE
End
relativistic ZORA
Corepotentials t12.rel
End

 *******************************************************************************
 *                                                                             *
 *  -------------------------------------                                      *
 *   Amsterdam Density Functional  (ADF)         2019                          *
 *  -------------------------------------                                      *
 *                                               r79301 2019-11-09             *
 *                                                                             *
 *                                                                             *
 *                              =================                              *
 *                              |               |                              *
 *                              |     A D F     |                              *
 *                              |               |                              *
 *                              =================                              *
 *                                                                             *
 *                                                                             *
 *   Online information and documentation:  https://www.scm.com/support/       *
 *   E-mail:  support@scm.com   info@scm.com                                   *
 *                                                                             *
 *   Scientific publications using ADF results must be properly referenced     *
 *   See the User Manuals (or the web site) for recommended citations          *
 *   The terms and conditions of the End User License Agreement apply to       *
 *   the use of ADF, https://www.scm.com/license-terms/                        *
 *                                                                             *
 **********************  x86_64_linux_intel / intelmpi  ************************
 
 
 
  
 ADF 2019  RunTime: Sep08-2020 06:13:02  Nodes: 1  Procs: 1

 Temporary files are created in /scratch/kid_0.14217603 (0x58465342)

 Tungsten (TZP, 4d frozen)



 ===========================
 A T T A C H E D   F I L E S
 ===========================
  
 CREATE - Data File:    TZP-W.4d
                        Tungsten (TZP, 4d frozen)
 Core Potentials:
         file : t12.rel



 ===============================
 M O D E L   P A R A M E T E R S
 ===============================
  
 DENSITY FUNCTIONAL POTENTIAL (scf)
    LDA:                               PW92                                    == Not Default ==
    Gradient Corrections:              PBEc PBEx                               == Not Default ==

 SPIN  (restricted / unrestr.)
    Molecule:                          Restricted                               

 OTHER ASPECTS
    Relativistic Corrections:          scalar (ZORA,MAPA)                      == Not Default ==

    Nuclear Charge Density Model:      Point Charge Nuclei                      
    Core Treatment:                    Frozen Orbital(s)                        

    Hyperfine or Zeeman Interaction:   ---                                      



 =====================================
 S Y M M E T R Y ,   E L E C T R O N S
 =====================================
  
 Symmetry: ATOM

 Irreducible Representations, including subspecies
 -------------------------------------------------
 S
 P:x  P:y  P:z
 D:z2  D:x2-y2  D:xy  D:xz  D:yz
 F:z3  F:z  F:xyz  F:z2x  F:z2y  F:x  F:y


 Configuration of Valence Electrons
 ==================================

          Occupation Numbers
          -------------------------------------------------
 S        2*2
 P        6
 D        4
 F        14
          -------------------------------------------------

 Total:   28

 Net Charge: 0 (Nuclei minus Electrons)

 Preset values for MO occupations will be applied through SCF cycle no. 1000000
 Thereafter, the program will assign electrons to MOs that are spatially
 similar to the occupied MOs in a "reference" cycle ("KeepOrbitals").
 The reference cycle is always the PREVIOUS cycle: it will evolve with
 the SCF procedure.



 ================================
 (Slater-type)  F U N C T I O N S  ***  (Basis and Fit)  ***
 ================================
  

 Atom Type    1  (W)
 ==============

 Valence Basis Sets:  25
 -----------------------
   1 S   52.000000
   2 S   33.250000
   3 S   19.100000
   4 S   11.650000
   2 P   36.850000
   3 P   16.500000
   4 P   11.550000
   3 D   20.100000
   4 D   10.300000
   1 S  163.900000
   5 S    6.050000
   5 S    3.950000
   6 S    2.850000
   6 S    1.800000
   6 S    1.140000
   5 P    5.900000
   5 P    4.000000
   5 P    2.700000
   5 D    4.150000
   5 D    2.250000
   5 D    1.200000
   4 F   13.550000
   4 F    7.050000
   4 F    3.550000
   6 P    1.800000

 Frozen Core Shells
 ------------------
    S:  4
    P:  3
    D:  2


 BAS: List of all Elementary Cartesian Basis Functions
 =====================================================

 The numbering in the list below (to the right of the function characteristics) is referred
 to in print-outs of MO eigenvectors and Mulliken populations in the BAS representation
 (as contrasted to the SFO representation).

 Notes:
 1. The functions are characterized by a polynomial prefactor (powers of x,y,z and r) and
    an exponential decay factor alpha.
 2. Since the basis sets are specific for an atom TYPE, the individual functions occur on
    all atoms of that type.
 3. The word 'Core' in the left margin signals that it is a Core Function (CF) : not a
    degree of freedom in the valence set, but only used to ensure orthogonalization of
    the other valence basis functions on the frozen Core Orbitals.


 (power of) X  Y  Z  R     Alpha  on Atom
            ==========     =====     ==========

 W                                    1
                                  ---------------------------------------------------------------------------
    Core    0  0  0  0    52.000      1
    Core    0  0  0  1    33.250      2
    Core    0  0  0  2    19.100      3
    Core    0  0  0  3    11.650      4
    Core    1  0  0  0    36.850      5
    Core    0  1  0  0    36.850      6
    Core    0  0  1  0    36.850      7
    Core    1  0  0  1    16.500      8
    Core    0  1  0  1    16.500      9
    Core    0  0  1  1    16.500     10
    Core    1  0  0  2    11.550     11
    Core    0  1  0  2    11.550     12
    Core    0  0  1  2    11.550     13
    Core    2  0  0  0    20.100     14
    Core    1  1  0  0    20.100     15
    Core    1  0  1  0    20.100     16
    Core    0  2  0  0    20.100     17
    Core    0  1  1  0    20.100     18
    Core    0  0  2  0    20.100     19
    Core    2  0  0  1    10.300     20
    Core    1  1  0  1    10.300     21
    Core    1  0  1  1    10.300     22
    Core    0  2  0  1    10.300     23
    Core    0  1  1  1    10.300     24
    Core    0  0  2  1    10.300     25
            0  0  0  0   163.900     26
            0  0  0  4     6.050     27
            0  0  0  4     3.950     28
            0  0  0  5     2.850     29
            0  0  0  5     1.800     30
            0  0  0  5     1.140     31
            1  0  0  3     5.900     32
            0  1  0  3     5.900     33
            0  0  1  3     5.900     34
            1  0  0  3     4.000     35
            0  1  0  3     4.000     36
            0  0  1  3     4.000     37
            1  0  0  3     2.700     38
            0  1  0  3     2.700     39
            0  0  1  3     2.700     40
            2  0  0  2     4.150     41
            1  1  0  2     4.150     42
            1  0  1  2     4.150     43
            0  2  0  2     4.150     44
            0  1  1  2     4.150     45
            0  0  2  2     4.150     46
            2  0  0  2     2.250     47
            1  1  0  2     2.250     48
            1  0  1  2     2.250     49
            0  2  0  2     2.250     50
            0  1  1  2     2.250     51
            0  0  2  2     2.250     52
            2  0  0  2     1.200     53
            1  1  0  2     1.200     54
            1  0  1  2     1.200     55
            0  2  0  2     1.200     56
            0  1  1  2     1.200     57
            0  0  2  2     1.200     58
            3  0  0  0    13.550     59
            2  1  0  0    13.550     60
            2  0  1  0    13.550     61
            1  2  0  0    13.550     62
            1  1  1  0    13.550     63
            1  0  2  0    13.550     64
            0  3  0  0    13.550     65
            0  2  1  0    13.550     66
            0  1  2  0    13.550     67
            0  0  3  0    13.550     68
            3  0  0  0     7.050     69
            2  1  0  0     7.050     70
            2  0  1  0     7.050     71
            1  2  0  0     7.050     72
            1  1  1  0     7.050     73
            1  0  2  0     7.050     74
            0  3  0  0     7.050     75
            0  2  1  0     7.050     76
            0  1  2  0     7.050     77
            0  0  3  0     7.050     78
            3  0  0  0     3.550     79
            2  1  0  0     3.550     80
            2  0  1  0     3.550     81
            1  2  0  0     3.550     82
            1  1  1  0     3.550     83
            1  0  2  0     3.550     84
            0  3  0  0     3.550     85
            0  2  1  0     3.550     86
            0  1  2  0     3.550     87
            0  0  3  0     3.550     88
            1  0  0  4     1.800     89
            0  1  0  4     1.800     90
            0  0  1  4     1.800     91

 Total number of charge fitting functions (nprimf)       329
 Total number of Cartesian basis functions (naos)         91
 Total number of Cartesian core functions  (ncos)         25



 BAS: List of all Elementary Cartesian Basis Functions
 =====================================================

 The numbering in the list below (to the right of the function characteristics) is referred
 to in print-outs of MO eigenvectors and Mulliken populations in the BAS representation
 (as contrasted to the SFO representation).

 Notes:
 1. The functions are characterized by a polynomial prefactor (powers of x,y,z and r) and
    an exponential decay factor alpha.
 2. Since the basis sets are specific for an atom TYPE, the individual functions occur on
    all atoms of that type.
 3. The word 'Core' in the left margin signals that it is a Core Function (CF) : not a
    degree of freedom in the valence set, but only used to ensure orthogonalization of
    the other valence basis functions on the frozen Core Orbitals.


 (power of) X  Y  Z  R     Alpha  on Atom
            ==========     =====     ==========

 W                                    1
                                  ---------------------------------------------------------------------------
    Core    0  0  0  0    52.000      1
    Core    0  0  0  1    33.250      2
    Core    0  0  0  2    19.100      3
    Core    0  0  0  3    11.650      4
    Core    1  0  0  0    36.850      5
    Core    0  1  0  0    36.850      6
    Core    0  0  1  0    36.850      7
    Core    1  0  0  1    16.500      8
    Core    0  1  0  1    16.500      9
    Core    0  0  1  1    16.500     10
    Core    1  0  0  2    11.550     11
    Core    0  1  0  2    11.550     12
    Core    0  0  1  2    11.550     13
    Core    2  0  0  0    20.100     14
    Core    1  1  0  0    20.100     15
    Core    1  0  1  0    20.100     16
    Core    0  2  0  0    20.100     17
    Core    0  1  1  0    20.100     18
    Core    0  0  2  0    20.100     19
    Core    2  0  0  1    10.300     20
    Core    1  1  0  1    10.300     21
    Core    1  0  1  1    10.300     22
    Core    0  2  0  1    10.300     23
    Core    0  1  1  1    10.300     24
    Core    0  0  2  1    10.300     25
            0  0  0  0   163.900     26
            0  0  0  4     6.050     27
            0  0  0  4     3.950     28
            0  0  0  5     2.850     29
            0  0  0  5     1.800     30
            0  0  0  5     1.140     31
            1  0  0  3     5.900     32
            0  1  0  3     5.900     33
            0  0  1  3     5.900     34
            1  0  0  3     4.000     35
            0  1  0  3     4.000     36
            0  0  1  3     4.000     37
            1  0  0  3     2.700     38
            0  1  0  3     2.700     39
            0  0  1  3     2.700     40
            2  0  0  2     4.150     41
            1  1  0  2     4.150     42
            1  0  1  2     4.150     43
            0  2  0  2     4.150     44
            0  1  1  2     4.150     45
            0  0  2  2     4.150     46
            2  0  0  2     2.250     47
            1  1  0  2     2.250     48
            1  0  1  2     2.250     49
            0  2  0  2     2.250     50
            0  1  1  2     2.250     51
            0  0  2  2     2.250     52
            2  0  0  2     1.200     53
            1  1  0  2     1.200     54
            1  0  1  2     1.200     55
            0  2  0  2     1.200     56
            0  1  1  2     1.200     57
            0  0  2  2     1.200     58
            3  0  0  0    13.550     59
            2  1  0  0    13.550     60
            2  0  1  0    13.550     61
            1  2  0  0    13.550     62
            1  1  1  0    13.550     63
            1  0  2  0    13.550     64
            0  3  0  0    13.550     65
            0  2  1  0    13.550     66
            0  1  2  0    13.550     67
            0  0  3  0    13.550     68
            3  0  0  0     7.050     69
            2  1  0  0     7.050     70
            2  0  1  0     7.050     71
            1  2  0  0     7.050     72
            1  1  1  0     7.050     73
            1  0  2  0     7.050     74
            0  3  0  0     7.050     75
            0  2  1  0     7.050     76
            0  1  2  0     7.050     77
            0  0  3  0     7.050     78
            3  0  0  0     3.550     79
            2  1  0  0     3.550     80
            2  0  1  0     3.550     81
            1  2  0  0     3.550     82
            1  1  1  0     3.550     83
[...]
 <Sep08-2020> <06:40:07>  energy change                      -0.00001264     0.00100000    T
 <Sep08-2020> <06:40:07>  constrained gradient max            0.00165628     0.00100000    F
 <Sep08-2020> <06:40:07>  constrained gradient rms            0.00056199     0.00066667    T
 <Sep08-2020> <06:40:07>  gradient max                        0.00165628
 <Sep08-2020> <06:40:07>  gradient rms                        0.00056199
 <Sep08-2020> <06:40:07>  cart. step max                      0.00855881     0.01000000    T
 <Sep08-2020> <06:40:07>  cart. step rms                      0.00293476     0.00666667    T
  Coordinates in Geometry Cycle 15
    Atom         X           Y           Z   (Angstrom)
    1.W         3.670309    3.503293    7.323130
    2.W         7.069210    3.782782    9.876630
    3.W         4.416576    1.859264   10.049558
    4.W         4.124439    5.255840   10.260767
    5.W         3.540669    6.850593    7.269491
    6.W         7.124512    7.059319    9.662030
    7.W         4.311723    8.692406    9.879344
    8.O         2.957678    5.202135    8.775210
    9.O         6.027066    5.209528   10.853680
   10.O         5.080587    3.695765    8.980215
   11.O         7.483592    5.349450    8.790922
   12.O         3.031652    2.296321    8.780011
   13.O         4.355369    5.187540    6.643999
   14.O         5.158051    0.542868    9.156771
   15.O         1.983732    6.754674    6.459089
   16.O         7.732945    8.143802    8.432395
   17.O         3.540055    6.645875   11.196153
   18.O         5.988170    8.249683   10.752311
   19.O         8.546516    3.656913   10.793907
   20.O         4.759880    2.435761    6.443705
   21.O         3.399274    9.471348   11.171829
   22.O         5.066677    6.808995    8.953804
   23.O         2.914682    8.077925    8.683208
   24.O         4.891632   10.032871    8.910956
   25.O         2.139868    3.418445    6.458096
   26.O         7.513350    2.616883    8.401383
   27.O         3.574157    3.837903   11.199117
   28.O         6.090867    2.456955   10.913652
   29.O         8.398512    7.005432   10.877322
   30.O         4.482190    7.938413    6.267111
   31.O         3.545714    1.045292   11.347609
   32.H         6.747915    2.499578    7.790059
 <Sep08-2020> <06:40:07>  >>>> CORORT
 <Sep08-2020> <06:40:07>  >>>> CLSMAT
 <Sep08-2020> <06:40:07>  >>>> ORTHON
 <Sep08-2020> <06:40:07>  >>>> GENPT
 <Sep08-2020> <06:40:07>  Block Length= 128
 <Sep08-2020> <06:40:08>  >>>> PTBAS
 <Sep08-2020> <06:40:13>  combining surface points...
 <Sep08-2020> <06:40:13>  combining surface points...
 <Sep08-2020> <06:40:13>  combining surface points...
 <Sep08-2020> <06:40:13>  >>>> CYCLE
 <Sep08-2020> <06:40:19>              |Error|         MaxErr       Wt(A-DIIS)
 <Sep08-2020> <06:40:19>      1      0.43588059      0.09665480
 <Sep08-2020> <06:40:24>      2      0.35520286      0.03020553    100.0
 <Sep08-2020> <06:40:28>      3      0.12413450      0.01023642    100.0
 <Sep08-2020> <06:40:32>      4      0.24403076      0.02247638    100.0
 <Sep08-2020> <06:40:36>      5      0.26369874      0.02624606    100.0
 <Sep08-2020> <06:40:41>      6      0.18208894      0.02175289    100.0
 <Sep08-2020> <06:40:45>      7      0.14127250      0.01450650    100.0
 <Sep08-2020> <06:40:49>      8      0.09524516      0.00974427      8.8
 <Sep08-2020> <06:40:53>      9      0.01402098      0.00184204      0.9
 <Sep08-2020> <06:40:57>     10      0.00455968      0.00068788      0.0
 <Sep08-2020> <06:41:01>     11      0.00249668      0.00032700      0.0
 <Sep08-2020> <06:41:05>     12      0.00069045      0.00006304      0.0
 <Sep08-2020> <06:41:09>     13      0.00035848      0.00005447      0.0
 <Sep08-2020> <06:41:13>     14      0.00018831      0.00002694      0.0
 <Sep08-2020> <06:41:17>     15      0.00008274      0.00000918      0.0
 <Sep08-2020> <06:41:21>     16      0.00004498      0.00000655      0.0
 <Sep08-2020> <06:41:25>     17      0.00001555      0.00000152      0.0
 <Sep08-2020> <06:41:29>     18      0.00001129      0.00000127      0.0
 <Sep08-2020> <06:41:33>     19      0.00000671      0.00000076      0.0
 <Sep08-2020> <06:41:35>  SCF converged
 <Sep08-2020> <06:41:37>     20      0.00000146      0.00000017      0.0
 <Sep08-2020> <06:41:39>  >>>> TOTEN
 <Sep08-2020> <06:41:44>  >>>> POPAN
 <Sep08-2020> <06:41:44>  >>>> DEBYE
 <Sep08-2020> <06:41:44>  >>>> ENGRAD
 <Sep08-2020> <06:42:02>  current energy                              -10.54213555 Hartree
 <Sep08-2020> <06:42:02>  energy change                      -0.00003183     0.00100000    T
 <Sep08-2020> <06:42:02>  constrained gradient max            0.00156015     0.00100000    F
 <Sep08-2020> <06:42:02>  constrained gradient rms            0.00046840     0.00066667    T
 <Sep08-2020> <06:42:02>  gradient max                        0.00156015
 <Sep08-2020> <06:42:02>  gradient rms                        0.00046840
 <Sep08-2020> <06:42:02>  cart. step max                      0.00700998     0.01000000    T
 <Sep08-2020> <06:42:02>  cart. step rms                      0.00255292     0.00666667    T
  Coordinates in Geometry Cycle 16
    Atom         X           Y           Z   (Angstrom)
    1.W         3.673619    3.505128    7.323748
    2.W         7.069399    3.780468    9.877131
    3.W         4.413904    1.861471   10.051664
    4.W         4.124550    5.257160   10.258952
    5.W         3.539447    6.854422    7.267590
    6.W         7.123828    7.056036    9.660715
    7.W         4.311585    8.691639    9.880742
    8.O         2.957013    5.202030    8.774892
    9.O         6.028577    5.212831   10.851756
   10.O         5.081201    3.696731    8.980226
   11.O         7.483513    5.346323    8.790032
   12.O         3.032255    2.297066    8.779467
   13.O         4.354407    5.190893    6.645059
   14.O         5.160294    0.546656    9.159968
   15.O         1.981977    6.756325    6.458242
   16.O         7.725935    8.139814    8.427126
   17.O         3.537912    6.643322   11.198404
   18.O         5.987917    8.246602   10.751956
   19.O         8.546915    3.656706   10.794460
   20.O         4.764965    2.437257    6.446597
   21.O         3.399531    9.468023   11.175425
   22.O         5.063953    6.809408    8.952916
   23.O         2.915068    8.078953    8.683314
   24.O         4.891096   10.033898    8.914098
   25.O         2.144405    3.419669    6.455912
   26.O         7.514858    2.610986    8.404478
   27.O         3.578140    3.835819   11.196679
   28.O         6.088605    2.460282   10.916119
   29.O         8.401863    7.006142   10.872173
   30.O         4.478999    7.943663    6.264943
   31.O         3.541224    1.044412   11.347043
   32.H         6.750612    2.493712    7.791636
 <Sep08-2020> <06:42:02>  >>>> CORORT
 <Sep08-2020> <06:42:02>  >>>> CLSMAT
 <Sep08-2020> <06:42:02>  >>>> ORTHON
 <Sep08-2020> <06:42:02>  >>>> GENPT
 <Sep08-2020> <06:42:03>  Block Length= 128
 <Sep08-2020> <06:42:03>  >>>> PTBAS
 <Sep08-2020> <06:42:08>  combining surface points...
 <Sep08-2020> <06:42:08>  combining surface points...
 <Sep08-2020> <06:42:08>  combining surface points...
 <Sep08-2020> <06:42:08>  >>>> CYCLE
 <Sep08-2020> <06:42:14>              |Error|         MaxErr       Wt(A-DIIS)
 <Sep08-2020> <06:42:14>      1      0.39443468      0.10871964
 <Sep08-2020> <06:42:19>      2      0.35767733      0.03068143    100.0
 <Sep08-2020> <06:42:23>      3      0.12479193      0.01028786    100.0
 <Sep08-2020> <06:42:27>      4      0.24701055      0.02283268    100.0
 <Sep08-2020> <06:42:31>      5      0.26215765      0.02629885    100.0
 <Sep08-2020> <06:42:36>      6      0.18443227      0.02231574    100.0
 <Sep08-2020> <06:42:40>      7      0.13797231      0.01422955     13.4
 <Sep08-2020> <06:42:44>      8      0.02800911      0.00389495      2.9
 <Sep08-2020> <06:42:48>      9      0.01025103      0.00138749      0.4
 <Sep08-2020> <06:42:52>     10      0.00430035      0.00063250      0.0
 <Sep08-2020> <06:42:56>     11      0.00226052      0.00027508      0.0
 <Sep08-2020> <06:43:00>     12      0.00057493      0.00006131      0.0
 <Sep08-2020> <06:43:04>     13      0.00029070      0.00003219      0.0
 <Sep08-2020> <06:43:08>     14      0.00017066      0.00001627      0.0
 <Sep08-2020> <06:43:12>     15      0.00005439      0.00000548      0.0
 <Sep08-2020> <06:43:16>     16      0.00003980      0.00000466      0.0
 <Sep08-2020> <06:43:20>     17      0.00001934      0.00000179      0.0
 <Sep08-2020> <06:43:24>     18      0.00001010      0.00000108      0.0
 <Sep08-2020> <06:43:28>     19      0.00000370      0.00000052      0.0
 <Sep08-2020> <06:43:30>  SCF converged
 <Sep08-2020> <06:43:32>     20      0.00000265      0.00000027      0.0
 <Sep08-2020> <06:43:34>  >>>> TOTEN
 <Sep08-2020> <06:43:40>  >>>> POPAN
 <Sep08-2020> <06:43:40>  >>>> DEBYE
 <Sep08-2020> <06:43:40>  >>>> ENGRAD
 <Sep08-2020> <06:43:57>  current energy                              -10.54215118 Hartree
 <Sep08-2020> <06:43:57>  energy change                      -0.00001563     0.00100000    T
 <Sep08-2020> <06:43:57>  constrained gradient max            0.00119002     0.00100000    F
 <Sep08-2020> <06:43:57>  constrained gradient rms            0.00039527     0.00066667    T
 <Sep08-2020> <06:43:57>  gradient max                        0.00119002
 <Sep08-2020> <06:43:57>  gradient rms                        0.00039527
 <Sep08-2020> <06:43:57>  cart. step max                      0.00595642     0.01000000    T
 <Sep08-2020> <06:43:57>  cart. step rms                      0.00169218     0.00666667    T
  Coordinates in Geometry Cycle 17
    Atom         X           Y           Z   (Angstrom)
    1.W         3.675775    3.506319    7.323905
    2.W         7.069711    3.779602    9.878140
    3.W         4.412399    1.863383   10.052674
    4.W         4.124016    5.258099   10.258055
    5.W         3.539327    6.856396    7.265945
    6.W         7.123521    7.053974    9.660026
    7.W         4.311634    8.690395    9.881433
    8.O         2.955902    5.202401    8.775396
    9.O         6.029231    5.214412   10.851071
   10.O         5.082377    3.697342    8.979729
   11.O         7.482802    5.344252    8.788817
   12.O         3.032121    2.298207    8.779108
   13.O         4.353810    5.192714    6.645534
   14.O         5.162390    0.550617    9.160737
   15.O         1.980782    6.756980    6.458789
   16.O         7.719979    8.138215    8.423936
   17.O         3.537378    6.642218   11.200259
   18.O         5.988111    8.243132   10.752669
   19.O         8.547249    3.655829   10.795635
   20.O         4.767441    2.438196    6.447356
   21.O         3.399916    9.466118   11.176716
   22.O         5.062019    6.809164    8.952157
   23.O         2.915355    8.078811    8.683131
   24.O         4.892039   10.033200    8.916207
   25.O         2.146907    3.420767    6.455176
   26.O         7.515553    2.608249    8.407070
   27.O         3.579378    3.834529   11.194629
   28.O         6.086949    2.463254   10.918800
   29.O         8.404708    7.007220   10.868422
   30.O         4.477190    7.946410    6.262605
   31.O         3.539373    1.043198   11.346047
   32.H         6.752224    2.490244    7.793291
 <Sep08-2020> <06:43:58>  >>>> CORORT
 <Sep08-2020> <06:43:58>  >>>> CLSMAT
 <Sep08-2020> <06:43:58>  >>>> ORTHON
 <Sep08-2020> <06:43:58>  >>>> GENPT
 <Sep08-2020> <06:43:58>  Block Length= 128
 <Sep08-2020> <06:43:58>  >>>> PTBAS
 <Sep08-2020> <06:44:03>  combining surface points...
 <Sep08-2020> <06:44:03>  combining surface points...
 <Sep08-2020> <06:44:03>  combining surface points...
 <Sep08-2020> <06:44:04>  >>>> CYCLE
 <Sep08-2020> <06:44:10>              |Error|         MaxErr       Wt(A-DIIS)
 <Sep08-2020> <06:44:10>      1      0.28345198      0.09460546
 <Sep08-2020> <06:44:14>      2      0.35882459      0.03103462    100.0
 <Sep08-2020> <06:44:18>      3      0.12614303      0.01039072    100.0
 <Sep08-2020> <06:44:23>      4      0.25856387      0.02409213    100.0
 <Sep08-2020> <06:44:27>      5      0.23381885      0.02301952    100.0
 <Sep08-2020> <06:44:31>      6      0.20485833      0.02500364    100.0
 <Sep08-2020> <06:44:35>      7      0.11639328      0.01067355      9.8
 <Sep08-2020> <06:44:39>      8      0.02733585      0.00403513      3.1
 <Sep08-2020> <06:44:44>      9      0.01025679      0.00137684      0.4
 <Sep08-2020> <06:44:48>     10      0.00435909      0.00061438      0.0
 <Sep08-2020> <06:44:52>     11      0.00230827      0.00032066      0.0
 <Sep08-2020> <06:44:56>     12      0.00056127      0.00006376      0.0
 <Sep08-2020> <06:45:00>     13      0.00027553      0.00003456      0.0
 <Sep08-2020> <06:45:04>     14      0.00016297      0.00001634      0.0
 <Sep08-2020> <06:45:08>     15      0.00004543      0.00000465      0.0
 <Sep08-2020> <06:45:12>     16      0.00003650      0.00000514      0.0
 <Sep08-2020> <06:45:16>     17      0.00001150      0.00000108      0.0
 <Sep08-2020> <06:45:19>     18      0.00003780      0.00000448      0.0
 <Sep08-2020> <06:45:23>     19      0.00000286      0.00000034      0.0
 <Sep08-2020> <06:45:25>  SCF converged
 <Sep08-2020> <06:45:27>     20      0.00000243      0.00000026      0.0
 <Sep08-2020> <06:45:29>  >>>> TOTEN
 <Sep08-2020> <06:45:35>  >>>> POPAN
 <Sep08-2020> <06:45:35>  >>>> DEBYE
 <Sep08-2020> <06:45:35>  >>>> ENGRAD
 <Sep08-2020> <06:45:52>  current energy                              -10.54220033 Hartree
 <Sep08-2020> <06:45:53>  energy change                      -0.00004915     0.00100000    T
 <Sep08-2020> <06:45:53>  constrained gradient max            0.00093071     0.00100000    T
 <Sep08-2020> <06:45:53>  constrained gradient rms            0.00032258     0.00066667    T
 <Sep08-2020> <06:45:53>  gradient max                        0.00093071
 <Sep08-2020> <06:45:53>  gradient rms                        0.00032258
 <Sep08-2020> <06:45:53>  cart. step max                      0.00461363     0.01000000    T
 <Sep08-2020> <06:45:53>  cart. step rms                      0.00143353     0.00666667    T
 <Sep08-2020> <06:45:53>  GEOMETRY CONVERGED
 <Sep08-2020> <06:45:53>  Calculating Energy Terms for Final Geometry
  Coordinates in Geometry Cycle 17
    Atom         X           Y           Z   (Angstrom)
    1.W         3.675775    3.506319    7.323905
    2.W         7.069711    3.779602    9.878140
    3.W         4.412399    1.863383   10.052674
    4.W         4.124016    5.258099   10.258055
    5.W         3.539327    6.856396    7.265945
    6.W         7.123521    7.053974    9.660026
    7.W         4.311634    8.690395    9.881433
    8.O         2.955902    5.202401    8.775396
    9.O         6.029231    5.214412   10.851071
   10.O         5.082377    3.697342    8.979729
   11.O         7.482802    5.344252    8.788817
   12.O         3.032121    2.298207    8.779108
   13.O         4.353810    5.192714    6.645534
   14.O         5.162390    0.550617    9.160737
   15.O         1.980782    6.756980    6.458789
   16.O         7.719979    8.138215    8.423936
   17.O         3.537378    6.642218   11.200259
   18.O         5.988111    8.243132   10.752669
   19.O         8.547249    3.655829   10.795635
   20.O         4.767441    2.438196    6.447356
   21.O         3.399916    9.466118   11.176716
   22.O         5.062019    6.809164    8.952157
   23.O         2.915355    8.078811    8.683131
   24.O         4.892039   10.033200    8.916207
   25.O         2.146907    3.420767    6.455176
   26.O         7.515553    2.608249    8.407070
   27.O         3.579378    3.834529   11.194629
   28.O         6.086949    2.463254   10.918800
   29.O         8.404708    7.007220   10.868422
   30.O         4.477190    7.946410    6.262605
   31.O         3.539373    1.043198   11.346047
   32.H         6.752224    2.490244    7.793291
 <Sep08-2020> <06:45:53>  >>>> CORORT
 <Sep08-2020> <06:45:53>  >>>> CLSMAT
 <Sep08-2020> <06:45:53>  >>>> ORTHON
 <Sep08-2020> <06:45:53>  >>>> GENPT
 <Sep08-2020> <06:45:53>  Block Length= 128
 <Sep08-2020> <06:45:54>  >>>> PTBAS
 <Sep08-2020> <06:45:59>  combining surface points...
 <Sep08-2020> <06:45:59>  combining surface points...
 <Sep08-2020> <06:45:59>  combining surface points...
 <Sep08-2020> <06:45:59>  >>>> CYCLE
 <Sep08-2020> <06:46:05>              |Error|         MaxErr       Wt(A-DIIS)
 <Sep08-2020> <06:46:05>      1      0.11108941      0.00941234
 <Sep08-2020> <06:46:09>      2      0.35761417      0.04137106    100.0
 <Sep08-2020> <06:46:14>      3      0.12585836      0.01089170    100.0
 <Sep08-2020> <06:46:18>      4      0.25790656      0.03166875    100.0
 <Sep08-2020> <06:46:22>      5      0.22992843      0.02920513    100.0
 <Sep08-2020> <06:46:27>      6      0.20689342      0.02449227    100.0
 <Sep08-2020> <06:46:31>      7      0.11639608      0.01339270     12.5
 <Sep08-2020> <06:46:35>      8      0.03000294      0.00385734      2.9
 <Sep08-2020> <06:46:39>      9      0.01025322      0.00125074      0.3
 <Sep08-2020> <06:46:43>     10      0.00435775      0.00060339      0.0
 <Sep08-2020> <06:46:47>     11      0.00234255      0.00029901      0.0
 <Sep08-2020> <06:46:51>     12      0.00056559      0.00006001      0.0
 <Sep08-2020> <06:46:55>     13      0.00027815      0.00003169      0.0
 <Sep08-2020> <06:46:59>     14      0.00016131      0.00001980      0.0
 <Sep08-2020> <06:47:03>     15      0.00004669      0.00000439      0.0
 <Sep08-2020> <06:47:07>     16      0.00003637      0.00000491      0.0
 <Sep08-2020> <06:47:11>     17      0.00001223      0.00000122      0.0
 <Sep08-2020> <06:47:15>     18      0.00004045      0.00000484      0.0
 <Sep08-2020> <06:47:19>     19      0.00000313      0.00000034      0.0
 <Sep08-2020> <06:47:21>  SCF converged
 <Sep08-2020> <06:47:23>     20      0.00000209      0.00000022      0.0
 <Sep08-2020> <06:47:26>  >>>> TOTEN
 <Sep08-2020> <06:47:39>  QTAIM: determining topology...
 <Sep08-2020> <06:47:53>  >>>> POPAN
 <Sep08-2020> <06:47:53>  >>>> DEBYE
 <Sep08-2020> <06:47:53>  >>>> AMETS
 <Sep08-2020> <06:47:53>  >>>> POPUL
 <Sep08-2020> <06:47:53>   Bond Energy         -10.54220033 a.u.
 <Sep08-2020> <06:47:53>   Bond Energy        -286.86786697 eV
 <Sep08-2020> <06:47:53>   Bond Energy       -6615.33       kcal/mol
 <Sep08-2020> <06:47:53>  >>>> ENHESS
 <Sep08-2020> <06:48:26>  === NUCLEUS:     1
 <Sep08-2020> <06:53:54>  === NUCLEUS:     2
 <Sep08-2020> <06:59:08>  === NUCLEUS:     3
 <Sep08-2020> <07:04:27>  === NUCLEUS:     4
 <Sep08-2020> <07:09:48>  === NUCLEUS:     5
 <Sep08-2020> <07:15:01>  === NUCLEUS:     6
 <Sep08-2020> <07:20:15>  === NUCLEUS:     7
 <Sep08-2020> <07:25:41>  === NUCLEUS:     8
 <Sep08-2020> <07:30:35>  === NUCLEUS:     9
 <Sep08-2020> <07:35:28>  === NUCLEUS:    10
 <Sep08-2020> <07:40:21>  === NUCLEUS:    11
 <Sep08-2020> <07:45:14>  === NUCLEUS:    12
 <Sep08-2020> <07:50:08>  === NUCLEUS:    13
 <Sep08-2020> <07:55:01>  === NUCLEUS:    14
 <Sep08-2020> <08:00:00>  === NUCLEUS:    15
 <Sep08-2020> <08:04:53>  === NUCLEUS:    16
 <Sep08-2020> <08:09:47>  === NUCLEUS:    17
 <Sep08-2020> <08:14:46>  === NUCLEUS:    18
 <Sep08-2020> <08:19:40>  === NUCLEUS:    19
 <Sep08-2020> <08:24:33>  === NUCLEUS:    20
 <Sep08-2020> <08:29:26>  === NUCLEUS:    21
 <Sep08-2020> <08:34:26>  === NUCLEUS:    22
 <Sep08-2020> <08:39:19>  === NUCLEUS:    23
 <Sep08-2020> <08:44:13>  === NUCLEUS:    24
 <Sep08-2020> <08:49:19>  === NUCLEUS:    25
 <Sep08-2020> <08:54:12>  === NUCLEUS:    26
 <Sep08-2020> <08:59:12>  === NUCLEUS:    27
 <Sep08-2020> <09:04:12>  === NUCLEUS:    28
 <Sep08-2020> <09:09:13>  === NUCLEUS:    29
 <Sep08-2020> <09:14:06>  === NUCLEUS:    30
 <Sep08-2020> <09:18:59>  === NUCLEUS:    31
 <Sep08-2020> <09:23:59>  === NUCLEUS:    32
 <Sep08-2020> <09:29:06>  >>>> CALC_HESS_PMAT
 <Sep08-2020> <09:30:27>  >>>> CALC_HESS_WMAT
 <Sep08-2020> <09:30:41>  NORMAL TERMINATION
 <Sep08-2020> <09:30:42>  END
