
 *******************************************************************************
 *                                                                             *
 *  -------------------------------------                                      *
 *   Amsterdam Density Functional  (ADF)         2019                          *
 *  -------------------------------------                                      *
 *                                               r79301 2019-11-09             *
 *                                                                             *
 *                                                                             *
 *                            =====================                            *
 *                            |                   |                            *
 *                            |     D I R A C     |                            *
 *                            |                   |                            *
 *                            =====================                            *
 *                                                                             *
 *                                                                             *
 *   Online information and documentation:  https://www.scm.com/support/       *
 *   E-mail:  support@scm.com   info@scm.com                                   *
 *                                                                             *
 *   Scientific publications using ADF results must be properly referenced     *
 *   See the User Manuals (or the web site) for recommended citations          *
 *   The terms and conditions of the End User License Agreement apply to       *
 *   the use of ADF, https://www.scm.com/license-terms/                        *
 *                                                                             *
 **********************  x86_64_linux_intel / intelmpi  ************************
 
 
 
  
 DIRAC 2019  RunTime: Sep08-2020 09:30:43  Nodes: 1  Procs: 1

 Temporary files are created in /scratch/kid_0.1625919172 (0x58465342)

1
 HYDROGEN ATOM RELATIVISTIC, Point Nuc, A and c from libtc   
 N J RN H ZN XION ANUC CLIGHT
 5000    1100.00000000197.36710137  1.00000000  0.00000000    1.007825  0.1370360E+03
  PH   PHI     EPS        DEL        DELRVR
  0.30  0.30     2500.00  0.00001000  0.00001000
 IDIRC  NC1  NDEBU NPRIN  IPUN IRCOR IWCOR
   1   300     0     0     0     0     0
   XALPHA      XLATTER      RNUC
  0.70000000  0.00000000  0.00000000 Point Charge
   XN   XL   XJ      XE          XZ      XDELL
  1.0  0.0  0.5      -1.000       1.000     0.00000
 ICORP=  0  NPCL=  0  DEMP=0.00  PEPS=0.000000
 R(1)=  0.1000000E-08 D=  0.1005080E+01 RNUC=  0.0000000E+00
 converged at cycle   32  DENSITY AVERAGING    0.2400
  MAXIMUM ERROR IN R.V(R) IS   0.79874357E-05
 Q,EY,EV,EZ,ESUM,ETOT,RHO  0.100000E+01 -0.266614E+00 -0.619969E+00 -0.910779E+00 -0.203940E+00 -0.415998E+00  0.337036E-17


 DIRAC CALCULATION
1                    HYDROGEN ATOM RELATIVISTIC, Point Nuc, A and c from libtc


 EXCHANGE COEFFICIENT=  0.7000000           TAIL CORRECTION=  0.           NUCLEAR RADIUS=  0.000E+00
0                       ORBITAL    N    L    J     ELECTRONS     EIGENVALUE                DELTA OF EIGENV.

                          1S1/2  1.0  0.0  0.5     1.000       -0.2039397E+00                 0.2720093E-06


                                        NUCLEAR CHARGE=    1.000000
                            INTEGRAL OF CHARGE DENSITY=    1.000000
                           SUM OF THE ORBITAL ENERGIES=     -0.2039
                                          TOTAL ENERGY=     -0.4160
                                        KINETIC ENERGY=      0.4160
                             NUCLEAR ATTRACTION ENERGY=     -0.9108
                             ELECTRON REPULSION ENERGY=      0.2787
                                       EXCHANGE ENERGY=     -0.2000

 *******************************************************************************

                             D I R A C   E X I T
 NORMAL TERMINATION



 =================
 Timing Statistics
 =================
  
 Total Used :                     CPU=        0.06      System=        0.01     Elapsed=        0.07

 Calls  Section                     ( Mean, Percentage )
 ---------------------------------------------------------------------------------------------------
     2  ><      ................      0.00    7.14             0.00    0.00             0.00    0.01
     1  EXIT PROCEDURE .........      0.05   92.86             0.01  100.00             0.07   99.99


 Currently Open Files (EXIT00)
 ====================

 Unit    Access Format  Status   Type       Ident (file)
 -------------------------------------------------------
   3      SEQ    FORM   TRANSP  NORMAL      LOGFILE
                                          ( logfile )
 
Create H   file=TZP-H
XC
  GGA PBE
End
relativistic ZORA
Corepotentials t12.rel
End

 *******************************************************************************
 *                                                                             *
 *  -------------------------------------                                      *
 *   Amsterdam Density Functional  (ADF)         2019                          *
 *  -------------------------------------                                      *
 *                                               r79301 2019-11-09             *
 *                                                                             *
 *                                                                             *
 *                              =================                              *
 *                              |               |                              *
 *                              |     A D F     |                              *
 *                              |               |                              *
 *                              =================                              *
 *                                                                             *
 *                                                                             *
 *   Online information and documentation:  https://www.scm.com/support/       *
 *   E-mail:  support@scm.com   info@scm.com                                   *
 *                                                                             *
 *   Scientific publications using ADF results must be properly referenced     *
 *   See the User Manuals (or the web site) for recommended citations          *
 *   The terms and conditions of the End User License Agreement apply to       *
 *   the use of ADF, https://www.scm.com/license-terms/                        *
 *                                                                             *
 **********************  x86_64_linux_intel / intelmpi  ************************
 
 
 
  
 ADF 2019  RunTime: Sep08-2020 09:30:43  Nodes: 1  Procs: 1

 Temporary files are created in /scratch/kid_0.1226934066 (0x58465342)

 Hydrogen (TZP)



 ===========================
 A T T A C H E D   F I L E S
 ===========================
  
 CREATE - Data File:    TZP-H
                        Hydrogen (TZP)
 Core Potentials:
         file : t12.rel



 ===============================
 M O D E L   P A R A M E T E R S
 ===============================
  
 DENSITY FUNCTIONAL POTENTIAL (scf)
    LDA:                               PW92                                    == Not Default ==
    Gradient Corrections:              PBEc PBEx                               == Not Default ==

 SPIN  (restricted / unrestr.)
    Molecule:                          Restricted                               

 OTHER ASPECTS
    Relativistic Corrections:          scalar (ZORA,MAPA)                      == Not Default ==

    Nuclear Charge Density Model:      Point Charge Nuclei                      
    Core Treatment:                    Frozen Orbital(s)                        

    Hyperfine or Zeeman Interaction:   ---                                      



 =====================================
 S Y M M E T R Y ,   E L E C T R O N S
 =====================================
  
 Symmetry: ATOM

 Irreducible Representations, including subspecies
 -------------------------------------------------
 S
 P:x  P:y  P:z
 D:z2  D:x2-y2  D:xy  D:xz  D:yz
 F:z3  F:z  F:xyz  F:z2x  F:z2y  F:x  F:y


 Configuration of Valence Electrons
 ==================================

          Occupation Numbers
          -------------------------------------------------
 S        1
 P        0
 D        0
 F        0
          -------------------------------------------------

 Total:   1

 Net Charge: 0 (Nuclei minus Electrons)

 Preset values for MO occupations will be applied through SCF cycle no. 1000000
 Thereafter, the program will assign electrons to MOs that are spatially
 similar to the occupied MOs in a "reference" cycle ("KeepOrbitals").
 The reference cycle is always the PREVIOUS cycle: it will evolve with
 the SCF procedure.



 ================================
 (Slater-type)  F U N C T I O N S  ***  (Basis and Fit)  ***
 ================================
  

 Atom Type    1  (H)
 ==============

 Valence Basis Sets:   4
 -----------------------
   1 S    0.690000
   1 S    0.920000
   1 S    1.580000
   2 P    1.250000


 BAS: List of all Elementary Cartesian Basis Functions
 =====================================================

 The numbering in the list below (to the right of the function characteristics) is referred
 to in print-outs of MO eigenvectors and Mulliken populations in the BAS representation
 (as contrasted to the SFO representation).

 Notes:
 1. The functions are characterized by a polynomial prefactor (powers of x,y,z and r) and
    an exponential decay factor alpha.
 2. Since the basis sets are specific for an atom TYPE, the individual functions occur on
    all atoms of that type.
 3. The word 'Core' in the left margin signals that it is a Core Function (CF) : not a
    degree of freedom in the valence set, but only used to ensure orthogonalization of
    the other valence basis functions on the frozen Core Orbitals.


 (power of) X  Y  Z  R     Alpha  on Atom
            ==========     =====     ==========

 H                                    1
                                  ---------------------------------------------------------------------------
            0  0  0  0     0.690      1
            0  0  0  0     0.920      2
            0  0  0  0     1.580      3
            1  0  0  0     1.250      4
            0  1  0  0     1.250      5
            0  0  1  0     1.250      6

 Total number of charge fitting functions (nprimf)        50
 Total number of Cartesian basis functions (naos)          6
 Total number of Cartesian core functions  (ncos)          0



 BAS: List of all Elementary Cartesian Basis Functions
 =====================================================

 The numbering in the list below (to the right of the function characteristics) is referred
 to in print-outs of MO eigenvectors and Mulliken populations in the BAS representation
 (as contrasted to the SFO representation).

 Notes:
 1. The functions are characterized by a polynomial prefactor (powers of x,y,z and r) and
    an exponential decay factor alpha.
 2. Since the basis sets are specific for an atom TYPE, the individual functions occur on
    all atoms of that type.
 3. The word 'Core' in the left margin signals that it is a Core Function (CF) : not a
    degree of freedom in the valence set, but only used to ensure orthogonalization of
    the other valence basis functions on the frozen Core Orbitals.


 (power of) X  Y  Z  R     Alpha  on Atom
            ==========     =====     ==========

 H                                    1
                                  ---------------------------------------------------------------------------
            0  0  0  0     0.690      1
            0  0  0  0     0.920      2
            0  0  0  0     1.580      3
            1  0  0  0     1.250      4
            0  1  0  0     1.250      5
            0  0  1  0     1.250      6
1
 ***************************************************************************************************



                                              ***********************
                                              *  T E C H N I C A L  *
                                              ***********************
  



 =============================================================
 P A R A L L E L I Z A T I O N  and  V E C T O R I Z A T I O N
 =============================================================
  
 Nr of parallel processes:                                1
 Maximum vector length in NumInt loops:                 128



 =====================
 S C F   U P D A T E S
 =====================
  
 Max. nr. of cycles:                               300
 Convergence criterion:                              0.0000000100
   secondary criterion:                              0.0000000100

 Mix parameter (when DIIS does not apply):           0.2000000000
 Special mix parameter for the first cycle:          1.0000000000
 Mixed ADIIS+SDIIS will be used                  
    Max number of expansion vectors:                10
    Pure ADIIS when Max([F,P]) is above              0.1000000000
    Pure SDIIS when Max([F,P]) is below              0.0010000000
 Automatic ElectronSmearing (in case of problematic SCF convergence) disabled



 =================
 P R E C I S I O N  ***  (General: NumInt, NeglectFunctionTails, ...)  ***
 =================
  

 NumInt:           Target precision:                12.0000000000
 -------           Initial precision:               10.0000000000
                   Min. precision (optimization):   10.0000000000

 Neglect Functions:          Basis functions:        0.1000000000E-13
 ------------------          Fit functions:          0.1000000000E-13



 ===========================
 L I N E A R   S C A L I N G
 ===========================
  

 Cut-off radii density fit:                        0.1000000000E-97
 Overlap cut-off criterion AO matrix elements:     0.1000000000E-97
 Cut-offs for Coulomb potential and fitted density:0.1000000000E-97
 Cut-off criterion for Coulomb multipole terms:    0.1000000000E-97
 Progressive Convergence parameter:                 0.000000000    
1
 ***************************************************************************************************



                                            ***************************
                                            *  C O M P U T A T I O N  *
                                            ***************************
  

 Number of elements of the density matrix on this node (used, total):        21        21



 ===========================================
 Numerical Integration : Fuzzy Cells (Becke)
 ===========================================
  
 Becke grid quality: VERYGOOD       
  
 Lebedev angular grid order:             min:  13 max:  41
 Nr. of radial points:                   min:  64 max:  64

 Total nr. of points:         64
 Nr. of blocks:                1
 Block length:                64
 Nr. of dummy points:          0


 Test of Precision of the Numerical Integration Grid
 ===================================================

 Integral of the Total Core Density:                   0.00000000000000



 ========================
 Density Fitting (zlmFit)
 ========================
  
 ZlmFit Fit Quality: VERYGOOD       
  
 Max L-expansion:                        min:   0 max:   0
 Nr. of radial interpolation points:     min: 120 max: 120



 =====
 S C F  ***  ScaSCF  ***
 =====
  

 CYCLE    1
 SCF Error: norm([F,P])=      0.000000000000, max([F,P])=      0.000000000000
 orbitals (Q,E):
 ---------------
 S :1...3            ( 1.00    -0.5000)  ( 0.00    -0.0900)  ( 0.00     1.2936)
 P :1...1            ( 0.00     0.1562)

 CYCLE    2
 SCF Error: norm([F,P])=      0.031537872292, max([F,P])=      0.030110494752
 orbitals (Q,E):
 ---------------
 S :1...2            ( 1.00    -0.2218)  ( 0.00     0.1019)
 P :1...1            ( 0.00     0.4189)

 CYCLE    3
  SDIIS (wt  0.000):  0.1996  0.8004
 A-DIIS (wt  1.000):  0.0000  1.0000
  DIIS coefficients:  0.0000  1.0000
 SCF Error: norm([F,P])=      0.008617989401, max([F,P])=      0.008343029399
 orbitals (Q,E):
 ---------------
 S :1...2            ( 1.00    -0.2422)  ( 0.00     0.0889)
 P :1...1            ( 0.00     0.4024)

 CYCLE    4
  SDIIS (wt  0.993):  0.1666  0.8334
 A-DIIS (wt  0.007):  0.0000  1.0000
  DIIS coefficients:  0.1654  0.8346
 SCF Error: norm([F,P])=      0.001732350026, max([F,P])=      0.001718616814
 orbitals (Q,E):
 ---------------
 S :1...2            ( 1.00    -0.2385)  ( 0.00     0.0908)
 P :1...1            ( 0.00     0.4054)

 CYCLE    5
  SDIIS (wt  1.000):  0.0236  0.9764
  DIIS coefficients:  0.0236  0.9764
 SCF Error: norm([F,P])=      0.000043673449, max([F,P])=      0.000039769875
 orbitals (Q,E):
 ---------------
 S :1...2            ( 1.00    -0.2386)  ( 0.00     0.0908)
 P :1...1            ( 0.00     0.4054)

 CYCLE    6
  SDIIS (wt  1.000): -0.0577  1.0577
  DIIS coefficients: -0.0577  1.0577
 SCF Error: norm([F,P])=      0.000002383805, max([F,P])=      0.000002158128
 orbitals (Q,E):
 ---------------
 S :1...2            ( 1.00    -0.2386)  ( 0.00     0.0908)
 P :1...1            ( 0.00     0.4054)

 CYCLE    7
  SDIIS (wt  1.000): -0.0032  1.0032
  DIIS coefficients: -0.0032  1.0032
 SCF Error: norm([F,P])=      0.000000007721, max([F,P])=      0.000000007228
 orbitals (Q,E):
 ---------------
 S :1...2            ( 1.00    -0.2386)  ( 0.00     0.0908)
 P :1...1            ( 0.00     0.4054)

 SCF CONVERGED

 CYCLE    8
1
 ***************************************************************************************************



                                                *******************
                                                *  R E S U L T S  *
                                                *******************
  
 *** Using FIT density in Focky
  SDIIS (wt  1.000):  0.0192  0.9808
  DIIS coefficients:  0.0192  0.9808
 SCF Error: norm([F,P])=      0.000000000151, max([F,P])=      0.000000000141

 Scaled ZORA Orbital Energies, per Irrep and Spin:
 =================================================
                        Occup              E (au)              E (eV)       Diff (eV) with prev. cycle
                        -----      --------------------        ------       --------------------------
 S
               1        1.000     -0.23861775226993E+00        -6.493               7.43E-09
               2        0.000      0.90791701709251E-01         2.471
               3        0.000      0.15217530108908E+01        41.409
 P
               1        0.000      0.40537978060393E+00        11.031


 Partially Occupied:
               1 S                -0.23861775226993E+00
  
 LUMO :        2 S                 0.90791701709251E-01
  


 Orbital Energies, all Irreps
 ========================================

 Irrep        no.  (spin)   Occup              E (au)                E (eV)
 ---------------------------------------------------------------------------
 S             1             1.00       -0.23861775226993E+00        -6.4931
 S             2             0.00        0.90791701709251E-01         2.4706
 P             1             0.00        0.40537978060393E+00        11.0309
 S             3             0.00        0.15217530108908E+01        41.4090


 All Electron Calculation, thus no Orbital Energies of the Core Orbitals are calculated



 =======================================
 M U L L I K E N   P O P U L A T I O N S
 =======================================
  
 The survey below gives for each atom:
 a) the total charge (Z minus electrons)
 b) the net spin polarization (nr of electrons spin-A minus spin-B)
 c) for each spin the atomic electron valence density (integrated) per L-value.

 Atom              Charge    Spin density          S         P         D         F
 ----              ------    ------------       ------    ------    ------    ------
 1 H              -0.0000                       1.0000    0.0000    0.0000    0.0000

 Populations of individual BAS functions
 ----------------------------------------
 1 H            0.2104  0.6788  0.1107  0.0000  0.0000  0.0000

 Gross Charges per Atom (Z minus electrons)
 ==========================================
            -0.0000
 Net Total: -0.00000000



 =======================================================================
 Electrostatic potential at the Nuclei due to electrons and other nuclei
 =======================================================================
  
         Atom                  Potential
         ----                  ---------
     1)   H                   0.94468022
 
 
 ========================
 No memory problems found
 ========================
 
 Maximum number of active allocate calls:         306
 
 *******************************************************************************

                             A D F   E X I T
 NORMAL TERMINATION



 =================
 Timing Statistics
 =================
  
 Total Used :                     CPU=        0.34      System=        0.02     Elapsed=        0.38

 Calls  Section                     ( Mean, Percentage )
 ---------------------------------------------------------------------------------------------------
     3  ><      ................      0.00    1.19             0.00    0.00             0.00    1.15
     1  INIT    ................      0.07   20.24             0.00   25.00             0.08   20.29
     1  GEOMET  ................      0.02    4.76             0.00   25.00             0.02    5.88
     1  INPUTA  ................      0.00    1.19             0.00    0.00             0.00    0.88
     1  MAINSY  ................      0.00    1.19             0.00   25.00             0.01    3.38
     1  SYMFIT  ................      0.00    0.00             0.00    0.00             0.00    0.42
     1  CORORT  ................      0.00    1.19             0.00    0.00             0.00    0.33
     1  SYMORB  ................      0.00    0.00             0.00    0.00             0.00    0.19
     1  CLSMAT  ................      0.00    1.19             0.00    0.00             0.01    1.36
     1  ORTHON  ................      0.00    1.19             0.00    0.00             0.00    1.23
     1  GENPT   ................      0.01    3.57             0.00    0.00             0.01    3.26
     1  PTBAS   ................      0.00    1.19             0.00    0.00             0.01    1.36
     8  FOCKY   ................      0.02   45.24             0.00   25.00             0.02   44.63
     8  FOCKTR  ................      0.00    2.38             0.00    0.00             0.00    1.25
     8  SDIIS   ................      0.00    7.14             0.00    0.00             0.00    5.65
     1  COREPS  ................      0.01    3.57             0.00    0.00             0.01    3.68
     1  POPAN   ................      0.00    1.19             0.00    0.00             0.00    1.23
     1  DEBYE   ................      0.00    0.00             0.00    0.00             0.00    0.48
     1  EXIT PROCEDURE .........      0.01    3.57             0.00    0.00             0.01    3.35


 Currently Open Files (EXIT00)
 ====================

 Unit    Access Format  Status   Type       Ident (file)
 -------------------------------------------------------
   3      SEQ    FORM   TRANSP  NORMAL      LOGFILE
                                          ( logfile )

 ***************************************************************************************************
 (LOGFILE)
 <Sep08-2020> <09:30:43>  DIRAC 2019  RunTime: Sep08-2020 09:30:43  Nodes: 1  Procs: 1
 <Sep08-2020> <09:30:43>  NORMAL TERMINATION
 <Sep08-2020> <09:30:43>  END
 <Sep08-2020> <09:30:43>  ADF 2019  RunTime: Sep08-2020 09:30:43  Nodes: 1  Procs: 1
 <Sep08-2020> <09:30:43>  Hydrogen (TZP)
 <Sep08-2020> <09:30:43>  RunType   : CREATE
 <Sep08-2020> <09:30:43>  Net Charge: 0 (Nuclei minus Electrons)
 <Sep08-2020> <09:30:43>  Symmetry  : ATOM
  Coordinates
    Atom         X           Y           Z   (Angstrom)
    1.H         0.000000    0.000000    0.000000
 <Sep08-2020> <09:30:43>  >>>> CORORT
 <Sep08-2020> <09:30:43>  >>>> CLSMAT
 <Sep08-2020> <09:30:43>  >>>> ORTHON
 <Sep08-2020> <09:30:43>  >>>> GENPT
 <Sep08-2020> <09:30:43>  Block Length=  64
 <Sep08-2020> <09:30:43>  >>>> PTBAS
 <Sep08-2020> <09:30:43>  >>>> CYCLE
 <Sep08-2020> <09:30:43>              |Error|         MaxErr       Wt(A-DIIS)
 <Sep08-2020> <09:30:43>      1      0.00000000      0.00000000
 <Sep08-2020> <09:30:43>      2      0.03153787      0.03011049
 <Sep08-2020> <09:30:43>      3      0.00861799      0.00834303    100.0
 <Sep08-2020> <09:30:43>      4      0.00173235      0.00171862      0.7
 <Sep08-2020> <09:30:43>      5      0.00004367      0.00003977      0.0
 <Sep08-2020> <09:30:43>      6      0.00000238      0.00000216      0.0
 <Sep08-2020> <09:30:43>      7      0.00000001      0.00000001      0.0
 <Sep08-2020> <09:30:43>  SCF converged
 <Sep08-2020> <09:30:43>      8      0.00000000      0.00000000      0.0
 <Sep08-2020> <09:30:43>  >>>> POPAN
 <Sep08-2020> <09:30:43>  >>>> DEBYE
 <Sep08-2020> <09:30:43>  NORMAL TERMINATION
 <Sep08-2020> <09:30:43>  END

 *******************************************************************************
 *                                                                             *
 *  -------------------------------------                                      *
 *   Amsterdam Density Functional  (ADF)         2019                          *
 *  -------------------------------------                                      *
 *                                               r79301 2019-11-09             *
 *                                                                             *
 *                                                                             *
 *                            =====================                            *
 *                            |                   |                            *
 *                            |     D I R A C     |                            *
 *                            |                   |                            *
 *                            =====================                            *
 *                                                                             *
 *                                                                             *
 *   Online information and documentation:  https://www.scm.com/support/       *
 *   E-mail:  support@scm.com   info@scm.com                                   *
 *                                                                             *
 *   Scientific publications using ADF results must be properly referenced     *
 *   See the User Manuals (or the web site) for recommended citations          *
 *   The terms and conditions of the End User License Agreement apply to       *
 *   the use of ADF, https://www.scm.com/license-terms/                        *
 *                                                                             *
 **********************  x86_64_linux_intel / intelmpi  ************************
 
 
 
  
 DIRAC 2019  RunTime: Sep08-2020 09:30:43  Nodes: 1  Procs: 1

 Temporary files are created in /scratch/kid_0.58648815 (0x58465342)

1
 OXYGEN ATOM 1s CORE RELATIVISTIC, Point Nuc, A and c from li
 N J RN H ZN XION ANUC CLIGHT
 5000    4100.00000000197.36710137  8.00000000  0.00000000   15.994914  0.1370360E+03
  PH   PHI     EPS        DEL        DELRVR
  0.30  0.30     2500.00  0.00001000  0.00001000
 IDIRC  NC1  NDEBU NPRIN  IPUN IRCOR IWCOR
   1   300     0     0     0     0     1
   XALPHA      XLATTER      RNUC
  0.70000000  0.00000000  0.00000000 Point Charge
   XN   XL   XJ      XE          XZ      XDELL
  1.0  0.0  0.5      -5.000       2.000     0.00000
  2.0  0.0  0.5      -1.000       2.000     0.00000
  2.0  1.0  0.5      -1.000       2.000     0.00000
  2.0  1.0  1.5      -1.000       2.000     0.00000
 ICORP=  0  NPCL=  0  DEMP=0.00  PEPS=0.000000
 R(1)=  0.1000000E-08 D=  0.1005080E+01 RNUC=  0.0000000E+00
 converged at cycle   28  DENSITY AVERAGING    0.2400
  MAXIMUM ERROR IN R.V(R) IS   0.81125670E-05
 Q,EY,EV,EZ,ESUM,ETOT,RHO  0.800000E+01 -0.101247E+02 -0.114961E+03 -0.177573E+03 -0.405053E+02 -0.743427E+02  0.414766E-14


 DIRAC CALCULATION
1                    OXYGEN ATOM 1s CORE RELATIVISTIC, Point Nuc, A and c from libtc


 EXCHANGE COEFFICIENT=  0.7000000           TAIL CORRECTION=  0.           NUCLEAR RADIUS=  0.000E+00
0                       ORBITAL    N    L    J     ELECTRONS     EIGENVALUE                DELTA OF EIGENV.

                          1S1/2  1.0  0.0  0.5     2.000       -0.1880014E+02                 0.7264358E-06
                          2S1/2  2.0  0.0  0.5     2.000       -0.8412236E+00                 0.5932752E-05
                          2P1/2  2.0  1.0  0.5     2.000       -0.3063203E+00                 0.5998471E-05
                          2P3/2  2.0  1.0  1.5     2.000       -0.3049609E+00                 0.5986971E-05


                                        NUCLEAR CHARGE=    8.000000
                            INTEGRAL OF CHARGE DENSITY=    8.000000
                           SUM OF THE ORBITAL ENERGIES=    -40.5053
                                          TOTAL ENERGY=    -74.3427
                                        KINETIC ENERGY=     74.4552
                             NUCLEAR ATTRACTION ENERGY=   -177.5730
                             ELECTRON REPULSION ENERGY=     36.3686
                                       EXCHANGE ENERGY=     -7.5935

 *******************************************************************************

                             D I R A C   E X I T
 NORMAL TERMINATION



 =================
 Timing Statistics
 =================
  
 Total Used :                     CPU=        0.10      System=        0.00     Elapsed=        0.11

 Calls  Section                     ( Mean, Percentage )
 ---------------------------------------------------------------------------------------------------
     2  ><      ................      0.00    0.00             0.00    0.00             0.00    0.01
     1  EXIT PROCEDURE .........      0.10  100.00             0.00  100.00             0.11   99.99


 Currently Open Files (EXIT00)
 ====================

 Unit    Access Format  Status   Type       Ident (file)
 -------------------------------------------------------
   3      SEQ    FORM   TRANSP  NORMAL      LOGFILE
                                          ( logfile )
 
Create O   file=TZP-O.1s
XC
  GGA PBE
End
relativistic ZORA
Corepotentials t12.rel
End

 *******************************************************************************
 *                                                                             *
 *  -------------------------------------                                      *
 *   Amsterdam Density Functional  (ADF)         2019                          *
 *  -------------------------------------                                      *
 *                                               r79301 2019-11-09             *
 *                                                                             *
 *                                                                             *
 *                              =================                              *
 *                              |               |                              *
 *                              |     A D F     |                              *
 *                              |               |                              *
 *                              =================                              *
 *                                                                             *
 *                                                                             *
 *   Online information and documentation:  https://www.scm.com/support/       *
 *   E-mail:  support@scm.com   info@scm.com                                   *
 *                                                                             *
 *   Scientific publications using ADF results must be properly referenced     *
 *   See the User Manuals (or the web site) for recommended citations          *
 *   The terms and conditions of the End User License Agreement apply to       *
 *   the use of ADF, https://www.scm.com/license-terms/                        *
 *                                                                             *
 **********************  x86_64_linux_intel / intelmpi  ************************
 
 
 
  
 ADF 2019  RunTime: Sep08-2020 09:30:44  Nodes: 1  Procs: 1

 Temporary files are created in /scratch/kid_0.2090641004 (0x58465342)

 Oxygen (TZP, 1s frozen)



 ===========================
 A T T A C H E D   F I L E S
 ===========================
  
 CREATE - Data File:    TZP-O.1s
                        Oxygen (TZP, 1s frozen)
 Core Potentials:
         file : t12.rel



 ===============================
 M O D E L   P A R A M E T E R S
 ===============================
  
 DENSITY FUNCTIONAL POTENTIAL (scf)
    LDA:                               PW92                                    == Not Default ==
    Gradient Corrections:              PBEc PBEx                               == Not Default ==

 SPIN  (restricted / unrestr.)
    Molecule:                          Restricted                               

 OTHER ASPECTS
    Relativistic Corrections:          scalar (ZORA,MAPA)                      == Not Default ==

    Nuclear Charge Density Model:      Point Charge Nuclei                      
    Core Treatment:                    Frozen Orbital(s)                        

    Hyperfine or Zeeman Interaction:   ---                                      



 =====================================
 S Y M M E T R Y ,   E L E C T R O N S
 =====================================
  
 Symmetry: ATOM

 Irreducible Representations, including subspecies
 -------------------------------------------------
 S
 P:x  P:y  P:z
 D:z2  D:x2-y2  D:xy  D:xz  D:yz
 F:z3  F:z  F:xyz  F:z2x  F:z2y  F:x  F:y


 Configuration of Valence Electrons
 ==================================

          Occupation Numbers
          -------------------------------------------------
 S        2
 P        4
 D        0
 F        0
          -------------------------------------------------

 Total:   6

 Net Charge: 0 (Nuclei minus Electrons)

 Preset values for MO occupations will be applied through SCF cycle no. 1000000
 Thereafter, the program will assign electrons to MOs that are spatially
 similar to the occupied MOs in a "reference" cycle ("KeepOrbitals").
 The reference cycle is always the PREVIOUS cycle: it will evolve with
 the SCF procedure.



 ================================
 (Slater-type)  F U N C T I O N S  ***  (Basis and Fit)  ***
 ================================
  

 Atom Type    1  (O)
 ==============

 Valence Basis Sets:   8
 -----------------------
   1 S    7.360000
   2 S    1.720000
   2 S    2.880000
   2 S    7.580000
   2 P    1.120000
   2 P    2.080000
   2 P    4.080000
   3 D    2.000000

 Frozen Core Shells
 ------------------
    S:  1


 BAS: List of all Elementary Cartesian Basis Functions
 =====================================================

 The numbering in the list below (to the right of the function characteristics) is referred
 to in print-outs of MO eigenvectors and Mulliken populations in the BAS representation
 (as contrasted to the SFO representation).

 Notes:
 1. The functions are characterized by a polynomial prefactor (powers of x,y,z and r) and
    an exponential decay factor alpha.
 2. Since the basis sets are specific for an atom TYPE, the individual functions occur on
    all atoms of that type.
 3. The word 'Core' in the left margin signals that it is a Core Function (CF) : not a
    degree of freedom in the valence set, but only used to ensure orthogonalization of
    the other valence basis functions on the frozen Core Orbitals.


 (power of) X  Y  Z  R     Alpha  on Atom
            ==========     =====     ==========

 O                                    1
                                  ---------------------------------------------------------------------------
    Core    0  0  0  0     7.360      1
            0  0  0  1     1.720      2
            0  0  0  1     2.880      3
            0  0  0  1     7.580      4
            1  0  0  0     1.120      5
            0  1  0  0     1.120      6
            0  0  1  0     1.120      7
            1  0  0  0     2.080      8
            0  1  0  0     2.080      9
            0  0  1  0     2.080     10
            1  0  0  0     4.080     11
            0  1  0  0     4.080     12
            0  0  1  0     4.080     13
            2  0  0  0     2.000     14
            1  1  0  0     2.000     15
            1  0  1  0     2.000     16
            0  2  0  0     2.000     17
            0  1  1  0     2.000     18
            0  0  2  0     2.000     19

 Total number of charge fitting functions (nprimf)        82
 Total number of Cartesian basis functions (naos)         19
 Total number of Cartesian core functions  (ncos)          1



 BAS: List of all Elementary Cartesian Basis Functions
 =====================================================

 The numbering in the list below (to the right of the function characteristics) is referred
 to in print-outs of MO eigenvectors and Mulliken populations in the BAS representation
 (as contrasted to the SFO representation).

 Notes:
 1. The functions are characterized by a polynomial prefactor (powers of x,y,z and r) and
    an exponential decay factor alpha.
 2. Since the basis sets are specific for an atom TYPE, the individual functions occur on
    all atoms of that type.
 3. The word 'Core' in the left margin signals that it is a Core Function (CF) : not a
    degree of freedom in the valence set, but only used to ensure orthogonalization of
    the other valence basis functions on the frozen Core Orbitals.


 (power of) X  Y  Z  R     Alpha  on Atom
            ==========     =====     ==========

 O                                    1
                                  ---------------------------------------------------------------------------
    Core    0  0  0  0     7.360      1
            0  0  0  1     1.720      2
            0  0  0  1     2.880      3
            0  0  0  1     7.580      4
            1  0  0  0     1.120      5
            0  1  0  0     1.120      6
            0  0  1  0     1.120      7
            1  0  0  0     2.080      8
            0  1  0  0     2.080      9
            0  0  1  0     2.080     10
            1  0  0  0     4.080     11
            0  1  0  0     4.080     12
            0  0  1  0     4.080     13
            2  0  0  0     2.000     14
            1  1  0  0     2.000     15
            1  0  1  0     2.000     16
            0  2  0  0     2.000     17
            0  1  1  0     2.000     18
            0  0  2  0     2.000     19
1
 ***************************************************************************************************



                                              ***********************
                                              *  T E C H N I C A L  *
                                              ***********************
  



 =============================================================
 P A R A L L E L I Z A T I O N  and  V E C T O R I Z A T I O N
 =============================================================
  
 Nr of parallel processes:                                1
 Maximum vector length in NumInt loops:                 128



 =====================
 S C F   U P D A T E S
 =====================
  
 Max. nr. of cycles:                               300
 Convergence criterion:                              0.0000000100
   secondary criterion:                              0.0000000100

 Mix parameter (when DIIS does not apply):           0.2000000000
 Special mix parameter for the first cycle:          1.0000000000
 Mixed ADIIS+SDIIS will be used                  
    Max number of expansion vectors:                10
    Pure ADIIS when Max([F,P]) is above              0.1000000000
    Pure SDIIS when Max([F,P]) is below              0.0010000000
 Automatic ElectronSmearing (in case of problematic SCF convergence) disabled



 =================
 P R E C I S I O N  ***  (General: NumInt, NeglectFunctionTails, ...)  ***
 =================
  

 NumInt:           Target precision:                12.0000000000
 -------           Initial precision:               10.0000000000
                   Min. precision (optimization):   10.0000000000

 Neglect Functions:          Basis functions:        0.1000000000E-13
 ------------------          Fit functions:          0.1000000000E-13



 ===========================
 L I N E A R   S C A L I N G
 ===========================
  

 Cut-off radii density fit:                        0.1000000000E-97
 Overlap cut-off criterion AO matrix elements:     0.1000000000E-97
 Cut-offs for Coulomb potential and fitted density:0.1000000000E-97
 Cut-off criterion for Coulomb multipole terms:    0.1000000000E-97
 Progressive Convergence parameter:                 0.000000000    
1
 ***************************************************************************************************



                                            ***************************
                                            *  C O M P U T A T I O N  *
                                            ***************************
  

 Number of elements of the density matrix on this node (used, total):       190       190



 ===========================================
 Numerical Integration : Fuzzy Cells (Becke)
 ===========================================
  
 Becke grid quality: VERYGOOD       
  
 Lebedev angular grid order:             min:  13 max:  41
 Nr. of radial points:                   min:  68 max:  68

 Total nr. of points:         68
 Nr. of blocks:                1
 Block length:                68
 Nr. of dummy points:          0


 Test of Precision of the Numerical Integration Grid
 ===================================================

 Integral of the Total Core Density:                   1.99999999865610
 Relative Error:                                      -6.720E-10



 ========================
 Density Fitting (zlmFit)
 ========================
  
 ZlmFit Fit Quality: VERYGOOD       
  
 Max L-expansion:                        min:   0 max:   0
 Nr. of radial interpolation points:     min: 140 max: 140



 =====
 S C F  ***  ScaSCF  ***
 =====
  

 CYCLE    1
 SCF Error: norm([F,P])=      0.000000000000, max([F,P])=      0.000000000000
 orbitals (Q,E):
 ---------------
 S :1...3            ( 2.00    -5.3654)  ( 0.00    -2.2073)  ( 0.00    23.6692)
 P :1...3            ( 4.00    -5.0045)  ( 0.00    -2.0150)  ( 0.00    -0.3846)
 D :1...1            ( 0.00    -2.0410)

 CYCLE    2
 SCF Error: norm([F,P])=      4.562993374873, max([F,P])=      2.528971113813
 orbitals (Q,E):
 ---------------
 S :1...2            ( 2.00    -0.1548)  ( 0.00     1.6948)
 P :1...2            ( 4.00     0.1773)  ( 0.00     0.9552)
 D :1...1            ( 0.00     1.4649)

 CYCLE    3
  SDIIS (wt  0.000):  0.3378  0.6622
 A-DIIS (wt  1.000):  0.4814  0.5186
  DIIS coefficients:  0.4814  0.5186
 SCF Error: norm([F,P])=      2.723155250500, max([F,P])=      1.798667049295
 orbitals (Q,E):
 ---------------
 S :1...2            ( 2.00    -1.1093)  ( 0.00     0.7549)
 P :1...2            ( 4.00    -0.5518)  ( 0.00     0.2590)
 D :1...1            ( 0.00     0.8910)

 CYCLE    4
  SDIIS (wt  0.000):  0.0919  0.9081
 A-DIIS (wt  1.000):  0.0000  1.0000
  DIIS coefficients:  0.0000  1.0000
 SCF Error: norm([F,P])=      0.289027138405, max([F,P])=      0.130648623511
 orbitals (Q,E):
 ---------------
 S :1...2            ( 2.00    -0.7707)  ( 0.00     0.9912)
 P :1...2            ( 4.00    -0.2284)  ( 0.00     0.4046)
 D :1...1            ( 0.00     1.1288)

 CYCLE    5
  SDIIS (wt  0.000):  0.0260  0.6740  0.3001
 A-DIIS (wt  1.000):  0.0000  0.5764  0.4236
  DIIS coefficients:  0.0000  0.5764  0.4236
 SCF Error: norm([F,P])=      0.416615089426, max([F,P])=      0.232643669786
 orbitals (Q,E):
 ---------------
 S :1...2            ( 2.00    -0.8764)  ( 0.00     0.9107)
 P :1...2            ( 4.00    -0.3280)  ( 0.00     0.3557)
 D :1...1            ( 0.00     1.0703)

 CYCLE    6
  SDIIS (wt  0.942):  0.0005  0.0237 -0.0203  0.9960
 A-DIIS (wt  0.058):  0.0000  0.0000  0.0000  1.0000
  DIIS coefficients:  0.0005  0.0224 -0.0191  0.9962
 SCF Error: norm([F,P])=      0.013723272809, max([F,P])=      0.006719036732
 orbitals (Q,E):
 ---------------
 S :1...2            ( 2.00    -0.8830)  ( 0.00     0.9058)
 P :1...2            ( 4.00    -0.3343)  ( 0.00     0.3521)
 D :1...1            ( 0.00     1.0657)

 CYCLE    7
  SDIIS (wt  1.000): -0.0000  0.0016  0.0023  0.0424  0.9537
  DIIS coefficients: -0.0000  0.0016  0.0023  0.0424  0.9537
 SCF Error: norm([F,P])=      0.001103645928, max([F,P])=      0.000634039171
 orbitals (Q,E):
 ---------------
 S :1...2            ( 2.00    -0.8827)  ( 0.00     0.9060)
 P :1...2            ( 4.00    -0.3340)  ( 0.00     0.3523)
 D :1...1            ( 0.00     1.0659)

 CYCLE    8
  SDIIS (wt  1.000): -0.0000 -0.0001  0.0000 -0.0032  0.0268  0.9765
  DIIS coefficients: -0.0000 -0.0001  0.0000 -0.0032  0.0268  0.9765
 SCF Error: norm([F,P])=      0.000035919805, max([F,P])=      0.000020263970
 orbitals (Q,E):
 ---------------
 S :1...2            ( 2.00    -0.8827)  ( 0.00     0.9060)
 P :1...2            ( 4.00    -0.3340)  ( 0.00     0.3522)
 D :1...1            ( 0.00     1.0659)

 CYCLE    9
  SDIIS (wt  1.000): -0.0000  0.0008  0.0188  0.9804
  DIIS coefficients: -0.0000  0.0008  0.0188  0.9804
 SCF Error: norm([F,P])=      0.000000326384, max([F,P])=      0.000000183924
 orbitals (Q,E):
 ---------------
 S :1...2            ( 2.00    -0.8827)  ( 0.00     0.9060)
 P :1...2            ( 4.00    -0.3340)  ( 0.00     0.3522)
 D :1...1            ( 0.00     1.0659)

 CYCLE   10
  SDIIS (wt  1.000):  0.0000  0.0003  0.9996
  DIIS coefficients:  0.0000  0.0003  0.9996
 SCF Error: norm([F,P])=      0.000000000559, max([F,P])=      0.000000000306
 orbitals (Q,E):
 ---------------
 S :1...2            ( 2.00    -0.8827)  ( 0.00     0.9060)
 P :1...2            ( 4.00    -0.3340)  ( 0.00     0.3522)
 D :1...1            ( 0.00     1.0659)

 SCF CONVERGED

 CYCLE   11
1
 ***************************************************************************************************



                                                *******************
                                                *  R E S U L T S  *
                                                *******************
  
 *** Using FIT density in Focky
  SDIIS (wt  1.000): -0.0000  0.0143  0.9857
  DIIS coefficients: -0.0000  0.0143  0.9857
 SCF Error: norm([F,P])=      0.000000000010, max([F,P])=      0.000000000006

 Scaled ZORA Orbital Energies, per Irrep and Spin:
 =================================================
                        Occup              E (au)              E (eV)       Diff (eV) with prev. cycle
                        -----      --------------------        ------       --------------------------
 S
               1        2.000     -0.88272313143209E+00       -24.020              -9.28E-11
               2        0.000      0.90601345014671E+00        24.654
               3        0.000      0.29578810816937E+02       804.880
 P
               1        4.000     -0.33400585272070E+00        -9.089              -8.94E-11
               2        0.000      0.35224911365993E+00         9.585
               3        0.000      0.38342927625315E+01       104.336
 D
               1        0.000      0.10658965783141E+01        29.005


 Partially Occupied:
               1 P                -0.33400585272070E+00
  
 HOMO :        1 S                -0.88272313143209E+00
 LUMO :        2 P                 0.35224911365993E+00
  


 Orbital Energies, all Irreps
 ========================================

 Irrep        no.  (spin)   Occup              E (au)                E (eV)
 ---------------------------------------------------------------------------
 S             1             2.00       -0.88272313143209E+00       -24.0201
 P             1             4.00       -0.33400585272070E+00        -9.0888
 P             2             0.00        0.35224911365993E+00         9.5852
 S             2             0.00        0.90601345014671E+00        24.6539
 D             1             0.00        0.10658965783141E+01        29.0045
 P             3             0.00        0.38342927625315E+01       104.3364
 S             3             0.00        0.29578810816937E+02       804.8804


 Scaled ZORA Orbital Energies of the Core Orbitals:
 ==================================================

 (Note that the atoms are grouped by atomtype, see the labels, and may hence NOT be in input order)

 AtomType  Orbital  Atom                   E (au)                        E (eV)
 --------  -------  ----           --------------------        ----------------
 O           1S        1          -0.18925919758629E+02                -515.000



 =======================================
 M U L L I K E N   P O P U L A T I O N S
 =======================================
  
 The survey below gives for each atom:
 a) the total charge (Z minus electrons)
 b) the net spin polarization (nr of electrons spin-A minus spin-B)
 c) for each spin the atomic electron valence density (integrated) per L-value.

 Atom              Charge    Spin density          S         P         D         F
 ----              ------    ------------       ------    ------    ------    ------
 1 O              -0.0000                       2.0000    4.0000    0.0000    0.0000

 Populations of individual BAS functions
 ----------------------------------------
 1 O            0.0005  0.9226  1.0966 -0.0196  0.3346  0.3346  0.3346  0.7512  0.7512  0.7512
                0.2476  0.2476  0.2476  0.0000  0.0000  0.0000  0.0000  0.0000  0.0000

 Gross Charges per Atom (Z minus electrons)
 ==========================================
            -0.0000
 Net Total: -0.00000000



 =======================================================================
 Electrostatic potential at the Nuclei due to electrons and other nuclei
 =======================================================================
  
         Atom                  Potential
         ----                  ---------
     1)   O                  22.20265662
 
 
 ========================
 No memory problems found
 ========================
 
 Maximum number of active allocate calls:         389
 
 *******************************************************************************

                             A D F   E X I T
 NORMAL TERMINATION



 =================
 Timing Statistics
 =================
  
 Total Used :                     CPU=        0.42      System=        0.04     Elapsed=        0.49

 Calls  Section                     ( Mean, Percentage )
 ---------------------------------------------------------------------------------------------------
     3  ><      ................      0.00    0.00             0.00   11.11             0.00    0.90
     1  INIT    ................      0.07   16.35             0.00   11.11             0.08   15.96
     1  GEOMET  ................      0.01    2.88             0.01   22.22             0.02    4.86
     1  INPUTA  ................      0.00    0.96             0.00    0.00             0.00    0.70
     1  MAINSY  ................      0.01    1.92             0.00   11.11             0.01    2.93
     1  SYMFIT  ................      0.00    0.00             0.00    0.00             0.00    0.33
     1  CORORT  ................      0.00    0.00             0.00    0.00             0.00    0.31
     1  SYMORB  ................      0.00    0.00             0.00    0.00             0.00    0.18
     1  CLSMAT  ................      0.00    0.96             0.00   11.11             0.01    1.19
     1  ORTHON  ................      0.00    0.96             0.00    0.00             0.01    1.07
     1  GENPT   ................      0.01    1.92             0.00   11.11             0.02    3.08
     1  PTBAS   ................      0.00    0.96             0.00    0.00             0.01    1.14
    11  FOCKY   ................      0.02   58.65             0.00    0.00             0.02   51.01
    11  FOCKTR  ................      0.00    0.96             0.00    0.00             0.00    1.55
    11  SDIIS   ................      0.00    6.73             0.00    0.00             0.00    6.97
     1  COREPS  ................      0.01    2.88             0.00   11.11             0.02    3.60
     1  POPAN   ................      0.00    0.00             0.00   11.11             0.01    1.12
     1  DEBYE   ................      0.00    0.96             0.00    0.00             0.00    0.39
     1  EXIT PROCEDURE .........      0.01    2.88             0.00    0.00             0.01    2.72


 Currently Open Files (EXIT00)
 ====================

 Unit    Access Format  Status   Type       Ident (file)
 -------------------------------------------------------
   3      SEQ    FORM   TRANSP  NORMAL      LOGFILE
                                          ( logfile )

 ***************************************************************************************************
 (LOGFILE)
 <Sep08-2020> <09:30:43>  DIRAC 2019  RunTime: Sep08-2020 09:30:43  Nodes: 1  Procs: 1
 <Sep08-2020> <09:30:43>  NORMAL TERMINATION
 <Sep08-2020> <09:30:43>  END
 <Sep08-2020> <09:30:43>  ADF 2019  RunTime: Sep08-2020 09:30:43  Nodes: 1  Procs: 1
 <Sep08-2020> <09:30:43>  Hydrogen (TZP)
 <Sep08-2020> <09:30:43>  RunType   : CREATE
 <Sep08-2020> <09:30:43>  Net Charge: 0 (Nuclei minus Electrons)
 <Sep08-2020> <09:30:43>  Symmetry  : ATOM
  Coordinates
    Atom         X           Y           Z   (Angstrom)
    1.H         0.000000    0.000000    0.000000
 <Sep08-2020> <09:30:43>  >>>> CORORT
 <Sep08-2020> <09:30:43>  >>>> CLSMAT
 <Sep08-2020> <09:30:43>  >>>> ORTHON
 <Sep08-2020> <09:30:43>  >>>> GENPT
 <Sep08-2020> <09:30:43>  Block Length=  64
 <Sep08-2020> <09:30:43>  >>>> PTBAS
 <Sep08-2020> <09:30:43>  >>>> CYCLE
 <Sep08-2020> <09:30:43>              |Error|         MaxErr       Wt(A-DIIS)
 <Sep08-2020> <09:30:43>      1      0.00000000      0.00000000
 <Sep08-2020> <09:30:43>      2      0.03153787      0.03011049
 <Sep08-2020> <09:30:43>      3      0.00861799      0.00834303    100.0
 <Sep08-2020> <09:30:43>      4      0.00173235      0.00171862      0.7
 <Sep08-2020> <09:30:43>      5      0.00004367      0.00003977      0.0
 <Sep08-2020> <09:30:43>      6      0.00000238      0.00000216      0.0
 <Sep08-2020> <09:30:43>      7      0.00000001      0.00000001      0.0
 <Sep08-2020> <09:30:43>  SCF converged
 <Sep08-2020> <09:30:43>      8      0.00000000      0.00000000      0.0
 <Sep08-2020> <09:30:43>  >>>> POPAN
 <Sep08-2020> <09:30:43>  >>>> DEBYE
 <Sep08-2020> <09:30:43>  NORMAL TERMINATION
 <Sep08-2020> <09:30:43>  END
 <Sep08-2020> <09:30:43>  DIRAC 2019  RunTime: Sep08-2020 09:30:43  Nodes: 1  Procs: 1
 <Sep08-2020> <09:30:43>  NORMAL TERMINATION
 <Sep08-2020> <09:30:43>  END
 <Sep08-2020> <09:30:44>  ADF 2019  RunTime: Sep08-2020 09:30:44  Nodes: 1  Procs: 1
 <Sep08-2020> <09:30:44>  Oxygen (TZP, 1s frozen)
 <Sep08-2020> <09:30:44>  RunType   : CREATE
 <Sep08-2020> <09:30:44>  Net Charge: 0 (Nuclei minus Electrons)
 <Sep08-2020> <09:30:44>  Symmetry  : ATOM
  Coordinates
    Atom         X           Y           Z   (Angstrom)
    1.O         0.000000    0.000000    0.000000
 <Sep08-2020> <09:30:44>  >>>> CORORT
 <Sep08-2020> <09:30:44>  >>>> CLSMAT
 <Sep08-2020> <09:30:44>  >>>> ORTHON
 <Sep08-2020> <09:30:44>  >>>> GENPT
 <Sep08-2020> <09:30:44>  Block Length=  68
 <Sep08-2020> <09:30:44>  >>>> PTBAS
 <Sep08-2020> <09:30:44>  >>>> CYCLE
 <Sep08-2020> <09:30:44>              |Error|         MaxErr       Wt(A-DIIS)
 <Sep08-2020> <09:30:44>      1      0.00000000      0.00000000
 <Sep08-2020> <09:30:44>      2      4.56299337      2.52897111
 <Sep08-2020> <09:30:44>      3      2.72315525      1.79866705    100.0
 <Sep08-2020> <09:30:44>      4      0.28902714      0.13064862    100.0
 <Sep08-2020> <09:30:44>      5      0.41661509      0.23264367    100.0
 <Sep08-2020> <09:30:44>      6      0.01372327      0.00671904      5.8
 <Sep08-2020> <09:30:44>      7      0.00110365      0.00063404      0.0
 <Sep08-2020> <09:30:44>      8      0.00003592      0.00002026      0.0
 <Sep08-2020> <09:30:44>      9      0.00000033      0.00000018      0.0
 <Sep08-2020> <09:30:44>     10      0.00000000      0.00000000      0.0
 <Sep08-2020> <09:30:44>  SCF converged
 <Sep08-2020> <09:30:44>     11      0.00000000      0.00000000      0.0
 <Sep08-2020> <09:30:44>  >>>> POPAN
 <Sep08-2020> <09:30:44>  >>>> DEBYE
 <Sep08-2020> <09:30:44>  NORMAL TERMINATION
 <Sep08-2020> <09:30:44>  END

 *******************************************************************************
 *                                                                             *
 *  -------------------------------------                                      *
 *   Amsterdam Density Functional  (ADF)         2019                          *
 *  -------------------------------------                                      *
 *                                               r79301 2019-11-09             *
 *                                                                             *
 *                                                                             *
 *                            =====================                            *
 *                            |                   |                            *
 *                            |     D I R A C     |                            *
 *                            |                   |                            *
 *                            =====================                            *
 *                                                                             *
 *                                                                             *
 *   Online information and documentation:  https://www.scm.com/support/       *
 *   E-mail:  support@scm.com   info@scm.com                                   *
 *                                                                             *
 *   Scientific publications using ADF results must be properly referenced     *
 *   See the User Manuals (or the web site) for recommended citations          *
 *   The terms and conditions of the End User License Agreement apply to       *
 *   the use of ADF, https://www.scm.com/license-terms/                        *
 *                                                                             *
 **********************  x86_64_linux_intel / intelmpi  ************************
 
 
 
  
 DIRAC 2019  RunTime: Sep08-2020 09:30:44  Nodes: 1  Procs: 1

 Temporary files are created in /scratch/kid_0.1060357386 (0x58465342)

1
 TUNGSTEN ATOM 4d CORE RELATIVISTIC, Point Nuc, A and c from 
 N J RN H ZN XION ANUC CLIGHT
 5000   22100.00000000197.36710137 74.00000000  0.00000000  183.950932  0.1370360E+03
  PH   PHI     EPS        DEL        DELRVR
  0.30  0.30     2500.00  0.00001000  0.00001000
 IDIRC  NC1  NDEBU NPRIN  IPUN IRCOR IWCOR
   1   300     0     0     0     0    14
   XALPHA      XLATTER      RNUC
  0.70000000  0.00000000  0.00000000 Point Charge
   XN   XL   XJ      XE          XZ      XDELL
  1.0  0.0  0.5   -2600.000       2.000     0.00000
  2.0  0.0  0.5    -425.000       2.000     0.00000
  2.0  1.0  0.5    -425.000       2.000     0.00000
  2.0  1.0  1.5    -425.000       4.000     0.00000
  3.0  0.0  0.5    -100.000       2.000     0.00000
  3.0  1.0  0.5    -100.000       2.000     0.00000
  3.0  1.0  1.5    -100.000       4.000     0.00000
  3.0  2.0  1.5     -80.000       4.000     0.00000
  3.0  2.0  2.5     -80.000       6.000     0.00000
  4.0  0.0  0.5     -22.000       2.000     0.00000
  4.0  1.0  0.5     -20.000       2.000     0.00000
  4.0  1.0  1.5     -20.000       4.000     0.00000
  4.0  2.0  1.5     -11.000       4.000     0.00000
  4.0  2.0  2.5     -11.000       6.000     0.00000
  4.0  3.0  2.5      -1.000       6.000     0.00000
  4.0  3.0  3.5      -1.000       8.000     0.00000
  5.0  0.0  0.5      -3.000       2.000     0.00000
  5.0  1.0  0.5      -2.200       2.000     0.00000
  5.0  1.0  1.5      -2.200       4.000     0.00000
  5.0  2.0  1.5      -0.500       4.000     0.00000
  5.0  2.0  2.5      -0.500       0.000     0.00000
  6.0  0.0  0.5      -0.200       2.000     0.00000
 ICORP=  0  NPCL=  0  DEMP=0.00  PEPS=0.000000
 R(1)=  0.1000000E-08 D=  0.1005080E+01 RNUC=  0.0000000E+00
 converged at cycle   63  DENSITY AVERAGING    0.1536
  MAXIMUM ERROR IN R.V(R) IS   0.78838062E-05
 Q,EY,EV,EZ,ESUM,ETOT,RHO  0.740000E+02 -0.431420E+03 -0.281568E+05 -0.403919E+05 -0.993885E+04 -0.161643E+05  0.726391E-09


 DIRAC CALCULATION
1                    TUNGSTEN ATOM 4d CORE RELATIVISTIC, Point Nuc, A and c from libtc


 EXCHANGE COEFFICIENT=  0.7000000           TAIL CORRECTION=  0.           NUCLEAR RADIUS=  0.000E+00
0                       ORBITAL    N    L    J     ELECTRONS     EIGENVALUE                DELTA OF EIGENV.

                          1S1/2  1.0  0.0  0.5     2.000       -0.2549514E+04                 0.5980248E-04
                          2S1/2  2.0  0.0  0.5     2.000       -0.4399118E+03                 0.5052420E-04
                          2P1/2  2.0  1.0  0.5     2.000       -0.4208427E+03                 0.5265062E-04
                          2P3/2  2.0  1.0  1.5     4.000       -0.3711192E+03                 0.5139441E-04
                          3S1/2  3.0  0.0  0.5     2.000       -0.1012881E+03                 0.3437035E-04
                          3P1/2  3.0  1.0  0.5     2.000       -0.9277148E+02                 0.3553128E-04
                          3P3/2  3.0  1.0  1.5     4.000       -0.8201733E+02                 0.3404634E-04
                          3D3/2  3.0  2.0  1.5     4.000       -0.6762803E+02                 0.3680712E-04
                          3D5/2  3.0  2.0  2.5     6.000       -0.6528623E+02                 0.3629511E-04
                          4S1/2  4.0  0.0  0.5     2.000       -0.2084139E+02                 0.1939427E-04
                          4P1/2  4.0  1.0  0.5     2.000       -0.1730737E+02                 0.1933978E-04
                          4P3/2  4.0  1.0  1.5     4.000       -0.1480597E+02                 0.1810922E-04
                          4D3/2  4.0  2.0  1.5     4.000       -0.8989319E+01                 0.1779394E-04
                          4D5/2  4.0  2.0  2.5     6.000       -0.8528007E+01                 0.1741170E-04
                          4F5/2  4.0  3.0  2.5     6.000       -0.1237480E+01                 0.1544089E-04
                          4F7/2  4.0  3.0  3.5     8.000       -0.1154634E+01                 0.1522033E-04
                          5S1/2  5.0  0.0  0.5     2.000       -0.2863514E+01                 0.7979521E-05
                          5P1/2  5.0  1.0  0.5     2.000       -0.1813289E+01                 0.7246225E-05
                          5P3/2  5.0  1.0  1.5     4.000       -0.1448762E+01                 0.6602120E-05
                          5D3/2  5.0  2.0  1.5     4.000       -0.1486933E+00                 0.3973088E-05
                          5D5/2  5.0  2.0  2.5     0.000       -0.1223153E+00                 0.3735081E-05
                          6S1/2  6.0  0.0  0.5     2.000       -0.1847434E+00                 0.1808440E-05


                                        NUCLEAR CHARGE=   74.000000
                            INTEGRAL OF CHARGE DENSITY=   74.000000
                           SUM OF THE ORBITAL ENERGIES=  -9938.8529
                                          TOTAL ENERGY= -16164.2530
                                        KINETIC ENERGY=  18217.9700
                             NUCLEAR ATTRACTION ENERGY= -40391.9132
                             ELECTRON REPULSION ENERGY=   6333.2551
                                       EXCHANGE ENERGY=   -323.5649

 *******************************************************************************

                             D I R A C   E X I T
 NORMAL TERMINATION



 =================
 Timing Statistics
 =================
  
 Total Used :                     CPU=        0.67      System=        0.02     Elapsed=        0.69

 Calls  Section                     ( Mean, Percentage )
 ---------------------------------------------------------------------------------------------------
     2  ><      ................      0.00    0.00             0.00    0.00             0.00    0.00
     1  EXIT PROCEDURE .........      0.67  100.00             0.02  100.00             0.69  100.00


 Currently Open Files (EXIT00)
 ====================

 Unit    Access Format  Status   Type       Ident (file)
 -------------------------------------------------------
   3      SEQ    FORM   TRANSP  NORMAL      LOGFILE
                                          ( logfile )
 
Create W   file=TZP-W.4d
XC
  GGA PBE
End
relativistic ZORA
Corepotentials t12.rel
End

 *******************************************************************************
 *                                                                             *
 *  -------------------------------------                                      *
 *   Amsterdam Density Functional  (ADF)         2019                          *
 *  -------------------------------------                                      *
 *                                               r79301 2019-11-09             *
 *                                                                             *
 *                                                                             *
 *                              =================                              *
 *                              |               |                              *
 *                              |     A D F     |                              *
 *                              |               |                              *
 *                              =================                              *
 *                                                                             *
 *                                                                             *
 *   Online information and documentation:  https://www.scm.com/support/       *
 *   E-mail:  support@scm.com   info@scm.com                                   *
 *                                                                             *
 *   Scientific publications using ADF results must be properly referenced     *
 *   See the User Manuals (or the web site) for recommended citations          *
 *   The terms and conditions of the End User License Agreement apply to       *
 *   the use of ADF, https://www.scm.com/license-terms/                        *
 *                                                                             *
 **********************  x86_64_linux_intel / intelmpi  ************************
 
 
 
  
 ADF 2019  RunTime: Sep08-2020 09:30:45  Nodes: 1  Procs: 1

 Temporary files are created in /scratch/kid_0.678455403 (0x58465342)

 Tungsten (TZP, 4d frozen)



 ===========================
 A T T A C H E D   F I L E S
 ===========================
  
 CREATE - Data File:    TZP-W.4d
                        Tungsten (TZP, 4d frozen)
 Core Potentials:
         file : t12.rel



 ===============================
 M O D E L   P A R A M E T E R S
 ===============================
  
 DENSITY FUNCTIONAL POTENTIAL (scf)
    LDA:                               PW92                                    == Not Default ==
    Gradient Corrections:              PBEc PBEx                               == Not Default ==

 SPIN  (restricted / unrestr.)
    Molecule:                          Restricted                               

 OTHER ASPECTS
    Relativistic Corrections:          scalar (ZORA,MAPA)                      == Not Default ==

    Nuclear Charge Density Model:      Point Charge Nuclei                      
    Core Treatment:                    Frozen Orbital(s)                        

    Hyperfine or Zeeman Interaction:   ---                                      



 =====================================
 S Y M M E T R Y ,   E L E C T R O N S
 =====================================
  
 Symmetry: ATOM

 Irreducible Representations, including subspecies
 -------------------------------------------------
 S
 P:x  P:y  P:z
 D:z2  D:x2-y2  D:xy  D:xz  D:yz
 F:z3  F:z  F:xyz  F:z2x  F:z2y  F:x  F:y


 Configuration of Valence Electrons
 ==================================

          Occupation Numbers
          -------------------------------------------------
 S        2*2
 P        6
 D        4
 F        14
          -------------------------------------------------

 Total:   28

 Net Charge: 0 (Nuclei minus Electrons)

 Preset values for MO occupations will be applied through SCF cycle no. 1000000
 Thereafter, the program will assign electrons to MOs that are spatially
 similar to the occupied MOs in a "reference" cycle ("KeepOrbitals").
 The reference cycle is always the PREVIOUS cycle: it will evolve with
 the SCF procedure.



 ================================
 (Slater-type)  F U N C T I O N S  ***  (Basis and Fit)  ***
 ================================
  

 Atom Type    1  (W)
 ==============

 Valence Basis Sets:  25
 -----------------------
   1 S   52.000000
   2 S   33.250000
   3 S   19.100000
   4 S   11.650000
   2 P   36.850000
   3 P   16.500000
   4 P   11.550000
   3 D   20.100000
   4 D   10.300000
   1 S  163.900000
   5 S    6.050000
   5 S    3.950000
   6 S    2.850000
   6 S    1.800000
   6 S    1.140000
   5 P    5.900000
   5 P    4.000000
   5 P    2.700000
   5 D    4.150000
   5 D    2.250000
   5 D    1.200000
   4 F   13.550000
   4 F    7.050000
   4 F    3.550000
   6 P    1.800000

 Frozen Core Shells
 ------------------
    S:  4
    P:  3
    D:  2


 BAS: List of all Elementary Cartesian Basis Functions
 =====================================================

 The numbering in the list below (to the right of the function characteristics) is referred
 to in print-outs of MO eigenvectors and Mulliken populations in the BAS representation
 (as contrasted to the SFO representation).

 Notes:
 1. The functions are characterized by a polynomial prefactor (powers of x,y,z and r) and
    an exponential decay factor alpha.
 2. Since the basis sets are specific for an atom TYPE, the individual functions occur on
    all atoms of that type.
 3. The word 'Core' in the left margin signals that it is a Core Function (CF) : not a
    degree of freedom in the valence set, but only used to ensure orthogonalization of
    the other valence basis functions on the frozen Core Orbitals.


 (power of) X  Y  Z  R     Alpha  on Atom
            ==========     =====     ==========

 W                                    1
                                  ---------------------------------------------------------------------------
    Core    0  0  0  0    52.000      1
    Core    0  0  0  1    33.250      2
    Core    0  0  0  2    19.100      3
    Core    0  0  0  3    11.650      4
    Core    1  0  0  0    36.850      5
    Core    0  1  0  0    36.850      6
    Core    0  0  1  0    36.850      7
    Core    1  0  0  1    16.500      8
    Core    0  1  0  1    16.500      9
    Core    0  0  1  1    16.500     10
    Core    1  0  0  2    11.550     11
    Core    0  1  0  2    11.550     12
    Core    0  0  1  2    11.550     13
    Core    2  0  0  0    20.100     14
    Core    1  1  0  0    20.100     15
    Core    1  0  1  0    20.100     16
    Core    0  2  0  0    20.100     17
    Core    0  1  1  0    20.100     18
    Core    0  0  2  0    20.100     19
    Core    2  0  0  1    10.300     20
    Core    1  1  0  1    10.300     21
    Core    1  0  1  1    10.300     22
    Core    0  2  0  1    10.300     23
    Core    0  1  1  1    10.300     24
    Core    0  0  2  1    10.300     25
            0  0  0  0   163.900     26
            0  0  0  4     6.050     27
            0  0  0  4     3.950     28
            0  0  0  5     2.850     29
            0  0  0  5     1.800     30
            0  0  0  5     1.140     31
            1  0  0  3     5.900     32
            0  1  0  3     5.900     33
            0  0  1  3     5.900     34
            1  0  0  3     4.000     35
            0  1  0  3     4.000     36
            0  0  1  3     4.000     37
            1  0  0  3     2.700     38
            0  1  0  3     2.700     39
            0  0  1  3     2.700     40
            2  0  0  2     4.150     41
            1  1  0  2     4.150     42
            1  0  1  2     4.150     43
            0  2  0  2     4.150     44
            0  1  1  2     4.150     45
            0  0  2  2     4.150     46
            2  0  0  2     2.250     47
            1  1  0  2     2.250     48
            1  0  1  2     2.250     49
            0  2  0  2     2.250     50
            0  1  1  2     2.250     51
            0  0  2  2     2.250     52
            2  0  0  2     1.200     53
            1  1  0  2     1.200     54
            1  0  1  2     1.200     55
            0  2  0  2     1.200     56
            0  1  1  2     1.200     57
            0  0  2  2     1.200     58
            3  0  0  0    13.550     59
            2  1  0  0    13.550     60
            2  0  1  0    13.550     61
            1  2  0  0    13.550     62
            1  1  1  0    13.550     63
            1  0  2  0    13.550     64
            0  3  0  0    13.550     65
            0  2  1  0    13.550     66
            0  1  2  0    13.550     67
            0  0  3  0    13.550     68
            3  0  0  0     7.050     69
            2  1  0  0     7.050     70
            2  0  1  0     7.050     71
            1  2  0  0     7.050     72
            1  1  1  0     7.050     73
            1  0  2  0     7.050     74
            0  3  0  0     7.050     75
            0  2  1  0     7.050     76
            0  1  2  0     7.050     77
            0  0  3  0     7.050     78
            3  0  0  0     3.550     79
            2  1  0  0     3.550     80
            2  0  1  0     3.550     81
            1  2  0  0     3.550     82
            1  1  1  0     3.550     83
            1  0  2  0     3.550     84
            0  3  0  0     3.550     85
            0  2  1  0     3.550     86
            0  1  2  0     3.550     87
            0  0  3  0     3.550     88
            1  0  0  4     1.800     89
            0  1  0  4     1.800     90
            0  0  1  4     1.800     91

 Total number of charge fitting functions (nprimf)       329
 Total number of Cartesian basis functions (naos)         91
 Total number of Cartesian core functions  (ncos)         25



 BAS: List of all Elementary Cartesian Basis Functions
 =====================================================

 The numbering in the list below (to the right of the function characteristics) is referred
 to in print-outs of MO eigenvectors and Mulliken populations in the BAS representation
 (as contrasted to the SFO representation).

 Notes:
 1. The functions are characterized by a polynomial prefactor (powers of x,y,z and r) and
    an exponential decay factor alpha.
 2. Since the basis sets are specific for an atom TYPE, the individual functions occur on
    all atoms of that type.
 3. The word 'Core' in the left margin signals that it is a Core Function (CF) : not a
    degree of freedom in the valence set, but only used to ensure orthogonalization of
    the other valence basis functions on the frozen Core Orbitals.


 (power of) X  Y  Z  R     Alpha  on Atom
            ==========     =====     ==========

 W                                    1
                                  ---------------------------------------------------------------------------
    Core    0  0  0  0    52.000      1
    Core    0  0  0  1    33.250      2
    Core    0  0  0  2    19.100      3
    Core    0  0  0  3    11.650      4
    Core    1  0  0  0    36.850      5
    Core    0  1  0  0    36.850      6
    Core    0  0  1  0    36.850      7
    Core    1  0  0  1    16.500      8
    Core    0  1  0  1    16.500      9
    Core    0  0  1  1    16.500     10
    Core    1  0  0  2    11.550     11
    Core    0  1  0  2    11.550     12
    Core    0  0  1  2    11.550     13
    Core    2  0  0  0    20.100     14
    Core    1  1  0  0    20.100     15
    Core    1  0  1  0    20.100     16
    Core    0  2  0  0    20.100     17
    Core    0  1  1  0    20.100     18
    Core    0  0  2  0    20.100     19
    Core    2  0  0  1    10.300     20
    Core    1  1  0  1    10.300     21
    Core    1  0  1  1    10.300     22
    Core    0  2  0  1    10.300     23
    Core    0  1  1  1    10.300     24
    Core    0  0  2  1    10.300     25
            0  0  0  0   163.900     26
            0  0  0  4     6.050     27
            0  0  0  4     3.950     28
            0  0  0  5     2.850     29
            0  0  0  5     1.800     30
            0  0  0  5     1.140     31
            1  0  0  3     5.900     32
            0  1  0  3     5.900     33
            0  0  1  3     5.900     34
            1  0  0  3     4.000     35
            0  1  0  3     4.000     36
            0  0  1  3     4.000     37
            1  0  0  3     2.700     38
            0  1  0  3     2.700     39
            0  0  1  3     2.700     40
            2  0  0  2     4.150     41
            1  1  0  2     4.150     42
            1  0  1  2     4.150     43
            0  2  0  2     4.150     44
            0  1  1  2     4.150     45
            0  0  2  2     4.150     46
            2  0  0  2     2.250     47
            1  1  0  2     2.250     48
            1  0  1  2     2.250     49
            0  2  0  2     2.250     50
            0  1  1  2     2.250     51
            0  0  2  2     2.250     52
            2  0  0  2     1.200     53
            1  1  0  2     1.200     54
            1  0  1  2     1.200     55
            0  2  0  2     1.200     56
            0  1  1  2     1.200     57
            0  0  2  2     1.200     58
            3  0  0  0    13.550     59
            2  1  0  0    13.550     60
            2  0  1  0    13.550     61
            1  2  0  0    13.550     62
            1  1  1  0    13.550     63
            1  0  2  0    13.550     64
            0  3  0  0    13.550     65
            0  2  1  0    13.550     66
            0  1  2  0    13.550     67
            0  0  3  0    13.550     68
            3  0  0  0     7.050     69
            2  1  0  0     7.050     70
            2  0  1  0     7.050     71
            1  2  0  0     7.050     72
            1  1  1  0     7.050     73
            1  0  2  0     7.050     74
            0  3  0  0     7.050     75
            0  2  1  0     7.050     76
            0  1  2  0     7.050     77
            0  0  3  0     7.050     78
            3  0  0  0     3.550     79
            2  1  0  0     3.550     80
            2  0  1  0     3.550     81
            1  2  0  0     3.550     82
            1  1  1  0     3.550     83
[...]
 <Sep08-2020> <10:02:34>  constrained gradient rms            0.00056004     0.00066667    T
 <Sep08-2020> <10:02:34>  gradient max                        0.00287392
 <Sep08-2020> <10:02:34>  gradient rms                        0.00056004
 <Sep08-2020> <10:02:34>  cart. step max                      0.01310877     0.01000000    F
 <Sep08-2020> <10:02:34>  cart. step rms                      0.00371838     0.00666667    T
  Coordinates in Geometry Cycle 17
    Atom         X           Y           Z   (Angstrom)
    1.W         3.678404    3.541304    7.234033
    2.W         7.121124    3.784067    9.922451
    3.W         4.448460    1.915804    9.937194
    4.W         4.161065    5.278978   10.259967
    5.W         3.363492    6.799076    7.405194
    6.W         7.135582    7.044314    9.598987
    7.W         4.326685    8.643282    9.914681
    8.O         2.917418    5.313842    8.765333
    9.O         6.013805    5.249155   10.855941
   10.O         5.065869    3.784645    8.916851
   11.O         7.500258    5.294192    8.786065
   12.O         3.064791    2.308408    8.664168
   13.O         4.284701    5.302062    6.612966
   14.O         5.384821    0.769344    8.970685
   15.O         1.894361    6.780512    6.480030
   16.O         7.675464    8.096688    8.316855
   17.O         3.595352    6.709322   11.168827
   18.O         6.028864    8.255207   10.715927
   19.O         8.528263    3.800875   10.939056
   20.O         4.674261    2.507766    6.242554
   21.O         3.530076    9.596391   11.155121
   22.O         5.060371    6.791179    8.933028
   23.O         2.822969    8.012486    8.799609
   24.O         4.867937    9.803008    8.693897
   25.O         2.107081    3.537519    6.452281
   26.O         7.590296    2.450910    8.635314
   27.O         3.537586    3.841465   11.115116
   28.O         6.036921    2.548848   10.926465
   29.O         8.448013    7.045677   10.764352
   30.O         4.370208    8.152249    6.507107
   31.O         3.600049    0.950460   11.133130
   32.H         6.847496    1.812510    8.438385
   33.H         4.819927    8.788487    7.134032
 <Sep08-2020> <10:02:34>  >>>> CORORT
 <Sep08-2020> <10:02:34>  >>>> CLSMAT
 <Sep08-2020> <10:02:34>  >>>> ORTHON
 <Sep08-2020> <10:02:34>  >>>> GENPT
 <Sep08-2020> <10:02:34>  Block Length= 128
 <Sep08-2020> <10:02:35>  >>>> PTBAS
 <Sep08-2020> <10:02:40>  combining surface points...
 <Sep08-2020> <10:02:40>  combining surface points...
 <Sep08-2020> <10:02:40>  combining surface points...
 <Sep08-2020> <10:02:40>  >>>> CYCLE
 <Sep08-2020> <10:02:47>              |Error|         MaxErr       Wt(A-DIIS)
 <Sep08-2020> <10:02:47>      1      0.45553171      0.06983084
 <Sep08-2020> <10:02:51>      2      0.26201861      0.01816911    100.0
 <Sep08-2020> <10:02:56>      3      0.09441786      0.00754546    100.0
 <Sep08-2020> <10:03:00>      4      0.16408947      0.01439734    100.0
 <Sep08-2020> <10:03:04>      5      0.22629523      0.01829555    100.0
 <Sep08-2020> <10:03:09>      6      0.13439651      0.01365537    100.0
 <Sep08-2020> <10:03:14>      7      0.13412228      0.01268691    100.0
 <Sep08-2020> <10:03:18>      8      0.08692884      0.01066455      9.8
 <Sep08-2020> <10:03:22>      9      0.00959174      0.00075995      0.0
 <Sep08-2020> <10:03:26>     10      0.00282579      0.00036677      0.0
 <Sep08-2020> <10:03:31>     11      0.00133588      0.00015416      0.0
 <Sep08-2020> <10:03:35>     12      0.00058605      0.00006238      0.0
 <Sep08-2020> <10:03:39>     13      0.00020539      0.00002008      0.0
 <Sep08-2020> <10:03:43>     14      0.00031109      0.00003231      0.0
 <Sep08-2020> <10:03:47>     15      0.00005664      0.00000647      0.0
 <Sep08-2020> <10:03:51>     16      0.00003244      0.00000411      0.0
 <Sep08-2020> <10:03:56>     17      0.00000930      0.00000087      0.0
 <Sep08-2020> <10:03:57>  SCF converged
 <Sep08-2020> <10:04:00>     18      0.00000877      0.00000120      0.0
 <Sep08-2020> <10:04:02>  >>>> TOTEN
 <Sep08-2020> <10:04:08>  >>>> POPAN
 <Sep08-2020> <10:04:08>  >>>> DEBYE
 <Sep08-2020> <10:04:08>  >>>> ENGRAD
 <Sep08-2020> <10:04:26>  current energy                              -10.53156395 Hartree
 <Sep08-2020> <10:04:26>  energy change                      -0.00001983     0.00100000    T
 <Sep08-2020> <10:04:26>  constrained gradient max            0.00205407     0.00100000    F
 <Sep08-2020> <10:04:26>  constrained gradient rms            0.00044852     0.00066667    T
 <Sep08-2020> <10:04:26>  gradient max                        0.00205407
 <Sep08-2020> <10:04:26>  gradient rms                        0.00044852
 <Sep08-2020> <10:04:26>  cart. step max                      0.00381462     0.01000000    T
 <Sep08-2020> <10:04:26>  cart. step rms                      0.00125722     0.00666667    T
  Coordinates in Geometry Cycle 18
    Atom         X           Y           Z   (Angstrom)
    1.W         3.677641    3.543286    7.233864
    2.W         7.122875    3.783641    9.922512
    3.W         4.448071    1.917542    9.937448
    4.W         4.162009    5.278819   10.258697
    5.W         3.362471    6.799644    7.403653
    6.W         7.136099    7.042642    9.599408
    7.W         4.326622    8.641488    9.915095
    8.O         2.917323    5.312578    8.764280
    9.O         6.014744    5.250415   10.855674
   10.O         5.066820    3.786447    8.916737
   11.O         7.501935    5.293500    8.785458
   12.O         3.064909    2.310162    8.663922
   13.O         4.284702    5.303061    6.611263
   14.O         5.385310    0.772634    8.969578
   15.O         1.892966    6.780069    6.479303
   16.O         7.674609    8.094649    8.316353
   17.O         3.595655    6.708801   11.168200
   18.O         6.029069    8.253793   10.715776
   19.O         8.529099    3.801251   10.940203
   20.O         4.674758    2.509877    6.243453
   21.O         3.530667    9.596991   11.154029
   22.O         5.060243    6.789608    8.932237
   23.O         2.822093    8.011021    8.800294
   24.O         4.869151    9.799554    8.692969
   25.O         2.106355    3.536455    6.452128
   26.O         7.589640    2.449420    8.636731
   27.O         3.538664    3.841274   11.114386
   28.O         6.036657    2.550266   10.927239
   29.O         8.448444    7.047007   10.764851
   30.O         4.369003    8.153749    6.508299
   31.O         3.600237    0.950009   11.131892
   32.H         6.845481    1.810873    8.442200
   33.H         4.817650    8.789510    7.137470
 <Sep08-2020> <10:04:26>  >>>> CORORT
 <Sep08-2020> <10:04:26>  >>>> CLSMAT
 <Sep08-2020> <10:04:27>  >>>> ORTHON
 <Sep08-2020> <10:04:27>  >>>> GENPT
 <Sep08-2020> <10:04:27>  Block Length= 128
 <Sep08-2020> <10:04:27>  >>>> PTBAS
 <Sep08-2020> <10:04:33>  combining surface points...
 <Sep08-2020> <10:04:33>  combining surface points...
 <Sep08-2020> <10:04:33>  combining surface points...
 <Sep08-2020> <10:04:33>  >>>> CYCLE
 <Sep08-2020> <10:04:39>              |Error|         MaxErr       Wt(A-DIIS)
 <Sep08-2020> <10:04:39>      1      0.21601851      0.04069697
 <Sep08-2020> <10:04:44>      2      0.26226102      0.01796836    100.0
 <Sep08-2020> <10:04:48>      3      0.09908178      0.00849055    100.0
 <Sep08-2020> <10:04:52>      4      0.20884098      0.01826075    100.0
 <Sep08-2020> <10:04:57>      5      0.14058766      0.00930129    100.0
 <Sep08-2020> <10:05:02>      6      0.15361832      0.01581416    100.0
 <Sep08-2020> <10:05:06>      7      0.09770659      0.00980399      8.9
 <Sep08-2020> <10:05:10>      8      0.02237177      0.00217457      1.2
 <Sep08-2020> <10:05:15>      9      0.00747032      0.00068680      0.0
 <Sep08-2020> <10:05:19>     10      0.00286613      0.00035760      0.0
 <Sep08-2020> <10:05:23>     11      0.00147449      0.00017371      0.0
 <Sep08-2020> <10:05:27>     12      0.00051159      0.00007777      0.0
 <Sep08-2020> <10:05:31>     13      0.00022671      0.00001970      0.0
 <Sep08-2020> <10:05:36>     14      0.00012867      0.00001213      0.0
 <Sep08-2020> <10:05:40>     15      0.00007478      0.00000831      0.0
 <Sep08-2020> <10:05:44>     16      0.00002693      0.00000255      0.0
 <Sep08-2020> <10:05:48>     17      0.00003900      0.00000407      0.0
 <Sep08-2020> <10:05:52>     18      0.00003940      0.00000379      0.0
 <Sep08-2020> <10:05:56>     19      0.00000272      0.00000033      0.0
 <Sep08-2020> <10:05:58>  SCF converged
 <Sep08-2020> <10:06:00>     20      0.00000515      0.00000064      0.0
 <Sep08-2020> <10:06:02>  >>>> TOTEN
 <Sep08-2020> <10:06:08>  >>>> POPAN
 <Sep08-2020> <10:06:08>  >>>> DEBYE
 <Sep08-2020> <10:06:08>  >>>> ENGRAD
 <Sep08-2020> <10:06:27>  current energy                              -10.53157276 Hartree
 <Sep08-2020> <10:06:27>  energy change                      -0.00000881     0.00100000    T
 <Sep08-2020> <10:06:27>  constrained gradient max            0.00106740     0.00100000    F
 <Sep08-2020> <10:06:27>  constrained gradient rms            0.00028878     0.00066667    T
 <Sep08-2020> <10:06:27>  gradient max                        0.00106740
 <Sep08-2020> <10:06:27>  gradient rms                        0.00028878
 <Sep08-2020> <10:06:27>  cart. step max                      0.00418744     0.01000000    T
 <Sep08-2020> <10:06:27>  cart. step rms                      0.00137040     0.00666667    T
  Coordinates in Geometry Cycle 19
    Atom         X           Y           Z   (Angstrom)
    1.W         3.676179    3.545537    7.233703
    2.W         7.124373    3.783270    9.923346
    3.W         4.447884    1.918998    9.937341
    4.W         4.162352    5.278649   10.258207
    5.W         3.360697    6.800066    7.402487
    6.W         7.137086    7.040668    9.600533
    7.W         4.327265    8.640047    9.914859
    8.O         2.916591    5.311469    8.763629
    9.O         6.015443    5.251574   10.856120
   10.O         5.066821    3.788218    8.916771
   11.O         7.503627    5.292179    8.785191
   12.O         3.065155    2.311060    8.663339
   13.O         4.284298    5.304859    6.609608
   14.O         5.386120    0.776822    8.966947
   15.O         1.891121    6.779897    6.478590
   16.O         7.675107    8.091505    8.316345
   17.O         3.596055    6.708021   11.168779
   18.O         6.029632    8.252957   10.715645
   19.O         8.529845    3.801453   10.941859
   20.O         4.674469    2.513149    6.243473
   21.O         3.531411    9.598221   11.151801
   22.O         5.060457    6.787995    8.932512
   23.O         2.821291    8.010032    8.801431
   24.O         4.871337    9.795903    8.691193
   25.O         2.104994    3.535125    6.451923
   26.O         7.590033    2.449061    8.638510
   27.O         3.538508    3.841147   11.113939
   28.O         6.036070    2.551277   10.928312
   29.O         8.449325    7.048431   10.765983
   30.O         4.366838    8.154138    6.508461
   31.O         3.601683    0.948208   11.130280
   32.H         6.845110    1.810016    8.445875
   33.H         4.814793    8.790082    7.138607
 <Sep08-2020> <10:06:27>  >>>> CORORT
 <Sep08-2020> <10:06:27>  >>>> CLSMAT
 <Sep08-2020> <10:06:27>  >>>> ORTHON
 <Sep08-2020> <10:06:27>  >>>> GENPT
 <Sep08-2020> <10:06:27>  Block Length= 128
 <Sep08-2020> <10:06:28>  >>>> PTBAS
 <Sep08-2020> <10:06:33>  combining surface points...
 <Sep08-2020> <10:06:33>  combining surface points...
 <Sep08-2020> <10:06:33>  combining surface points...
 <Sep08-2020> <10:06:33>  >>>> CYCLE
 <Sep08-2020> <10:06:40>              |Error|         MaxErr       Wt(A-DIIS)
 <Sep08-2020> <10:06:40>      1      0.23496242      0.05524474
 <Sep08-2020> <10:06:44>      2      0.26261573      0.01803630    100.0
 <Sep08-2020> <10:06:49>      3      0.10178143      0.00877423    100.0
 <Sep08-2020> <10:06:53>      4      0.22272061      0.01945482    100.0
 <Sep08-2020> <10:06:57>      5      0.12187539      0.00834307    100.0
 <Sep08-2020> <10:07:02>      6      0.15529271      0.01576629    100.0
 <Sep08-2020> <10:07:06>      7      0.10385021      0.01017715      9.3
 <Sep08-2020> <10:07:11>      8      0.02123036      0.00193890      0.9
 <Sep08-2020> <10:07:15>      9      0.00742393      0.00069623      0.0
 <Sep08-2020> <10:07:19>     10      0.00282035      0.00035178      0.0
 <Sep08-2020> <10:07:23>     11      0.00139232      0.00016191      0.0
 <Sep08-2020> <10:07:27>     12      0.00052400      0.00007773      0.0
 <Sep08-2020> <10:07:32>     13      0.00024633      0.00002268      0.0
 <Sep08-2020> <10:07:36>     14      0.00013573      0.00001230      0.0
 <Sep08-2020> <10:07:40>     15      0.00007606      0.00000874      0.0
 <Sep08-2020> <10:07:44>     16      0.00002339      0.00000259      0.0
 <Sep08-2020> <10:07:48>     17      0.00003039      0.00000331      0.0
 <Sep08-2020> <10:07:52>     18      0.00003278      0.00000360      0.0
 <Sep08-2020> <10:07:56>     19      0.00000465      0.00000051      0.0
 <Sep08-2020> <10:07:58>  SCF converged
 <Sep08-2020> <10:08:00>     20      0.00000683      0.00000084      0.0
 <Sep08-2020> <10:08:03>  >>>> TOTEN
 <Sep08-2020> <10:08:08>  >>>> POPAN
 <Sep08-2020> <10:08:08>  >>>> DEBYE
 <Sep08-2020> <10:08:08>  >>>> ENGRAD
 <Sep08-2020> <10:08:27>  current energy                              -10.53157959 Hartree
 <Sep08-2020> <10:08:27>  energy change                      -0.00000683     0.00100000    T
 <Sep08-2020> <10:08:27>  constrained gradient max            0.00077653     0.00100000    T
 <Sep08-2020> <10:08:27>  constrained gradient rms            0.00019666     0.00066667    T
 <Sep08-2020> <10:08:27>  gradient max                        0.00077653
 <Sep08-2020> <10:08:27>  gradient rms                        0.00019666
 <Sep08-2020> <10:08:27>  cart. step max                      0.00171413     0.01000000    T
 <Sep08-2020> <10:08:27>  cart. step rms                      0.00058245     0.00666667    T
 <Sep08-2020> <10:08:27>  GEOMETRY CONVERGED
 <Sep08-2020> <10:08:27>  Calculating Energy Terms for Final Geometry
  Coordinates in Geometry Cycle 19
    Atom         X           Y           Z   (Angstrom)
    1.W         3.676179    3.545537    7.233703
    2.W         7.124373    3.783270    9.923346
    3.W         4.447884    1.918998    9.937341
    4.W         4.162352    5.278649   10.258207
    5.W         3.360697    6.800066    7.402487
    6.W         7.137086    7.040668    9.600533
    7.W         4.327265    8.640047    9.914859
    8.O         2.916591    5.311469    8.763629
    9.O         6.015443    5.251574   10.856120
   10.O         5.066821    3.788218    8.916771
   11.O         7.503627    5.292179    8.785191
   12.O         3.065155    2.311060    8.663339
   13.O         4.284298    5.304859    6.609608
   14.O         5.386120    0.776822    8.966947
   15.O         1.891121    6.779897    6.478590
   16.O         7.675107    8.091505    8.316345
   17.O         3.596055    6.708021   11.168779
   18.O         6.029632    8.252957   10.715645
   19.O         8.529845    3.801453   10.941859
   20.O         4.674469    2.513149    6.243473
   21.O         3.531411    9.598221   11.151801
   22.O         5.060457    6.787995    8.932512
   23.O         2.821291    8.010032    8.801431
   24.O         4.871337    9.795903    8.691193
   25.O         2.104994    3.535125    6.451923
   26.O         7.590033    2.449061    8.638510
   27.O         3.538508    3.841147   11.113939
   28.O         6.036070    2.551277   10.928312
   29.O         8.449325    7.048431   10.765983
   30.O         4.366838    8.154138    6.508461
   31.O         3.601683    0.948208   11.130280
   32.H         6.845110    1.810016    8.445875
   33.H         4.814793    8.790082    7.138607
 <Sep08-2020> <10:08:27>  >>>> CORORT
 <Sep08-2020> <10:08:27>  >>>> CLSMAT
 <Sep08-2020> <10:08:27>  >>>> ORTHON
 <Sep08-2020> <10:08:27>  >>>> GENPT
 <Sep08-2020> <10:08:28>  Block Length= 128
 <Sep08-2020> <10:08:28>  >>>> PTBAS
 <Sep08-2020> <10:08:33>  combining surface points...
 <Sep08-2020> <10:08:33>  combining surface points...
 <Sep08-2020> <10:08:33>  combining surface points...
 <Sep08-2020> <10:08:33>  >>>> CYCLE
 <Sep08-2020> <10:08:40>              |Error|         MaxErr       Wt(A-DIIS)
 <Sep08-2020> <10:08:40>      1      0.08702244      0.00671064
 <Sep08-2020> <10:08:45>      2      0.26326384      0.02406537    100.0
 <Sep08-2020> <10:08:49>      3      0.09861113      0.00812438    100.0
 <Sep08-2020> <10:08:53>      4      0.20299280      0.02336428    100.0
 <Sep08-2020> <10:08:58>      5      0.15243917      0.01341130    100.0
 <Sep08-2020> <10:09:02>      6      0.15299058      0.01563117    100.0
 <Sep08-2020> <10:09:06>      7      0.09436340      0.01232410     11.4
 <Sep08-2020> <10:09:11>      8      0.02476896      0.00219217      1.2
 <Sep08-2020> <10:09:15>      9      0.00748620      0.00065622      0.0
 <Sep08-2020> <10:09:19>     10      0.00285483      0.00035063      0.0
 <Sep08-2020> <10:09:23>     11      0.00145492      0.00019130      0.0
 <Sep08-2020> <10:09:28>     12      0.00051933      0.00007474      0.0
 <Sep08-2020> <10:09:32>     13      0.00022718      0.00002251      0.0
 <Sep08-2020> <10:09:36>     14      0.00011151      0.00001317      0.0
 <Sep08-2020> <10:09:40>     15      0.00006704      0.00000901      0.0
 <Sep08-2020> <10:09:44>     16      0.00002799      0.00000327      0.0
 <Sep08-2020> <10:09:48>     17      0.00003477      0.00000323      0.0
 <Sep08-2020> <10:09:52>     18      0.00004627      0.00000557      0.0
 <Sep08-2020> <10:09:57>     19      0.00000167      0.00000017      0.0
 <Sep08-2020> <10:09:58>  SCF converged
 <Sep08-2020> <10:10:01>     20      0.00000226      0.00000019      0.0
 <Sep08-2020> <10:10:04>  >>>> TOTEN
 <Sep08-2020> <10:10:17>  QTAIM: determining topology...
 <Sep08-2020> <10:10:30>  >>>> POPAN
 <Sep08-2020> <10:10:30>  >>>> DEBYE
 <Sep08-2020> <10:10:30>  >>>> AMETS
 <Sep08-2020> <10:10:31>  >>>> POPUL
 <Sep08-2020> <10:10:31>   Bond Energy         -10.53157959 a.u.
 <Sep08-2020> <10:10:31>   Bond Energy        -286.57886184 eV
 <Sep08-2020> <10:10:31>   Bond Energy       -6608.67       kcal/mol
 <Sep08-2020> <10:10:31>  >>>> ENHESS
 <Sep08-2020> <10:11:06>  === NUCLEUS:     1
 <Sep08-2020> <10:16:46>  === NUCLEUS:     2
 <Sep08-2020> <10:22:12>  === NUCLEUS:     3
 <Sep08-2020> <10:27:37>  === NUCLEUS:     4
 <Sep08-2020> <10:33:11>  === NUCLEUS:     5
 <Sep08-2020> <10:38:36>  === NUCLEUS:     6
 <Sep08-2020> <10:44:02>  === NUCLEUS:     7
 <Sep08-2020> <10:49:28>  === NUCLEUS:     8
 <Sep08-2020> <10:54:32>  === NUCLEUS:     9
 <Sep08-2020> <10:59:37>  === NUCLEUS:    10
 <Sep08-2020> <11:04:42>  === NUCLEUS:    11
 <Sep08-2020> <11:09:54>  === NUCLEUS:    12
 <Sep08-2020> <11:15:06>  === NUCLEUS:    13
 <Sep08-2020> <11:20:10>  === NUCLEUS:    14
 <Sep08-2020> <11:25:14>  === NUCLEUS:    15
 <Sep08-2020> <11:30:12>  === NUCLEUS:    16
 <Sep08-2020> <11:35:16>  === NUCLEUS:    17
 <Sep08-2020> <11:40:28>  === NUCLEUS:    18
 <Sep08-2020> <11:45:41>  === NUCLEUS:    19
 <Sep08-2020> <11:50:46>  === NUCLEUS:    20
 <Sep08-2020> <11:55:51>  === NUCLEUS:    21
 <Sep08-2020> <12:00:55>  === NUCLEUS:    22
 <Sep08-2020> <12:06:01>  === NUCLEUS:    23
 <Sep08-2020> <12:11:06>  === NUCLEUS:    24
 <Sep08-2020> <12:16:18>  === NUCLEUS:    25
 <Sep08-2020> <12:21:23>  === NUCLEUS:    26
 <Sep08-2020> <12:26:34>  === NUCLEUS:    27
 <Sep08-2020> <12:31:47>  === NUCLEUS:    28
 <Sep08-2020> <12:36:59>  === NUCLEUS:    29
 <Sep08-2020> <12:42:04>  === NUCLEUS:    30
 <Sep08-2020> <12:47:16>  === NUCLEUS:    31
 <Sep08-2020> <12:52:21>  === NUCLEUS:    32
 <Sep08-2020> <12:57:32>  === NUCLEUS:    33
 <Sep08-2020> <13:02:43>  >>>> CALC_HESS_PMAT
 <Sep08-2020> <13:04:09>  >>>> CALC_HESS_WMAT
 <Sep08-2020> <13:04:25>  NORMAL TERMINATION
 <Sep08-2020> <13:04:25>  END
