
 *******************************************************************************
 *                                                                             *
 *  -------------------------------------                                      *
 *   Amsterdam Density Functional  (ADF)         2019                          *
 *  -------------------------------------                                      *
 *                                               r79301 2019-11-09             *
 *                                                                             *
 *                                                                             *
 *                            =====================                            *
 *                            |                   |                            *
 *                            |     D I R A C     |                            *
 *                            |                   |                            *
 *                            =====================                            *
 *                                                                             *
 *                                                                             *
 *   Online information and documentation:  https://www.scm.com/support/       *
 *   E-mail:  support@scm.com   info@scm.com                                   *
 *                                                                             *
 *   Scientific publications using ADF results must be properly referenced     *
 *   See the User Manuals (or the web site) for recommended citations          *
 *   The terms and conditions of the End User License Agreement apply to       *
 *   the use of ADF, https://www.scm.com/license-terms/                        *
 *                                                                             *
 **********************  x86_64_linux_intel / intelmpi  ************************
 
 
 
  
 DIRAC 2019  RunTime: Sep08-2020 22:19:59  Nodes: 1  Procs: 1

 Temporary files are created in /scratch/kid_0.1809639874 (0x58465342)

1
 OXYGEN ATOM 1s CORE RELATIVISTIC, Point Nuc, A and c from li
 N J RN H ZN XION ANUC CLIGHT
 5000    4100.00000000197.36710137  8.00000000  0.00000000   15.994914  0.1370360E+03
  PH   PHI     EPS        DEL        DELRVR
  0.30  0.30     2500.00  0.00001000  0.00001000
 IDIRC  NC1  NDEBU NPRIN  IPUN IRCOR IWCOR
   1   300     0     0     0     0     1
   XALPHA      XLATTER      RNUC
  0.70000000  0.00000000  0.00000000 Point Charge
   XN   XL   XJ      XE          XZ      XDELL
  1.0  0.0  0.5      -5.000       2.000     0.00000
  2.0  0.0  0.5      -1.000       2.000     0.00000
  2.0  1.0  0.5      -1.000       2.000     0.00000
  2.0  1.0  1.5      -1.000       2.000     0.00000
 ICORP=  0  NPCL=  0  DEMP=0.00  PEPS=0.000000
 R(1)=  0.1000000E-08 D=  0.1005080E+01 RNUC=  0.0000000E+00
 converged at cycle   28  DENSITY AVERAGING    0.2400
  MAXIMUM ERROR IN R.V(R) IS   0.81125670E-05
 Q,EY,EV,EZ,ESUM,ETOT,RHO  0.800000E+01 -0.101247E+02 -0.114961E+03 -0.177573E+03 -0.405053E+02 -0.743427E+02  0.414766E-14


 DIRAC CALCULATION
1                    OXYGEN ATOM 1s CORE RELATIVISTIC, Point Nuc, A and c from libtc


 EXCHANGE COEFFICIENT=  0.7000000           TAIL CORRECTION=  0.           NUCLEAR RADIUS=  0.000E+00
0                       ORBITAL    N    L    J     ELECTRONS     EIGENVALUE                DELTA OF EIGENV.

                          1S1/2  1.0  0.0  0.5     2.000       -0.1880014E+02                 0.7264358E-06
                          2S1/2  2.0  0.0  0.5     2.000       -0.8412236E+00                 0.5932752E-05
                          2P1/2  2.0  1.0  0.5     2.000       -0.3063203E+00                 0.5998471E-05
                          2P3/2  2.0  1.0  1.5     2.000       -0.3049609E+00                 0.5986971E-05


                                        NUCLEAR CHARGE=    8.000000
                            INTEGRAL OF CHARGE DENSITY=    8.000000
                           SUM OF THE ORBITAL ENERGIES=    -40.5053
                                          TOTAL ENERGY=    -74.3427
                                        KINETIC ENERGY=     74.4552
                             NUCLEAR ATTRACTION ENERGY=   -177.5730
                             ELECTRON REPULSION ENERGY=     36.3686
                                       EXCHANGE ENERGY=     -7.5935

 *******************************************************************************

                             D I R A C   E X I T
 NORMAL TERMINATION



 =================
 Timing Statistics
 =================
  
 Total Used :                     CPU=        0.09      System=        0.01     Elapsed=        0.11

 Calls  Section                     ( Mean, Percentage )
 ---------------------------------------------------------------------------------------------------
     2  ><      ................      0.00    0.00             0.00    0.00             0.00    0.01
     1  EXIT PROCEDURE .........      0.09  100.00             0.01  100.00             0.11   99.99


 Currently Open Files (EXIT00)
 ====================

 Unit    Access Format  Status   Type       Ident (file)
 -------------------------------------------------------
   3      SEQ    FORM   TRANSP  NORMAL      LOGFILE
                                          ( logfile )
 
Create O   file=TZP-O.1s
XC
  GGA PBE
End
relativistic ZORA
Corepotentials t12.rel
End

 *******************************************************************************
 *                                                                             *
 *  -------------------------------------                                      *
 *   Amsterdam Density Functional  (ADF)         2019                          *
 *  -------------------------------------                                      *
 *                                               r79301 2019-11-09             *
 *                                                                             *
 *                                                                             *
 *                              =================                              *
 *                              |               |                              *
 *                              |     A D F     |                              *
 *                              |               |                              *
 *                              =================                              *
 *                                                                             *
 *                                                                             *
 *   Online information and documentation:  https://www.scm.com/support/       *
 *   E-mail:  support@scm.com   info@scm.com                                   *
 *                                                                             *
 *   Scientific publications using ADF results must be properly referenced     *
 *   See the User Manuals (or the web site) for recommended citations          *
 *   The terms and conditions of the End User License Agreement apply to       *
 *   the use of ADF, https://www.scm.com/license-terms/                        *
 *                                                                             *
 **********************  x86_64_linux_intel / intelmpi  ************************
 
 
 
  
 ADF 2019  RunTime: Sep08-2020 22:19:59  Nodes: 1  Procs: 1

 Temporary files are created in /scratch/kid_0.796128620 (0x58465342)

 Oxygen (TZP, 1s frozen)



 ===========================
 A T T A C H E D   F I L E S
 ===========================
  
 CREATE - Data File:    TZP-O.1s
                        Oxygen (TZP, 1s frozen)
 Core Potentials:
         file : t12.rel



 ===============================
 M O D E L   P A R A M E T E R S
 ===============================
  
 DENSITY FUNCTIONAL POTENTIAL (scf)
    LDA:                               PW92                                    == Not Default ==
    Gradient Corrections:              PBEc PBEx                               == Not Default ==

 SPIN  (restricted / unrestr.)
    Molecule:                          Restricted                               

 OTHER ASPECTS
    Relativistic Corrections:          scalar (ZORA,MAPA)                      == Not Default ==

    Nuclear Charge Density Model:      Point Charge Nuclei                      
    Core Treatment:                    Frozen Orbital(s)                        

    Hyperfine or Zeeman Interaction:   ---                                      



 =====================================
 S Y M M E T R Y ,   E L E C T R O N S
 =====================================
  
 Symmetry: ATOM

 Irreducible Representations, including subspecies
 -------------------------------------------------
 S
 P:x  P:y  P:z
 D:z2  D:x2-y2  D:xy  D:xz  D:yz
 F:z3  F:z  F:xyz  F:z2x  F:z2y  F:x  F:y


 Configuration of Valence Electrons
 ==================================

          Occupation Numbers
          -------------------------------------------------
 S        2
 P        4
 D        0
 F        0
          -------------------------------------------------

 Total:   6

 Net Charge: 0 (Nuclei minus Electrons)

 Preset values for MO occupations will be applied through SCF cycle no. 1000000
 Thereafter, the program will assign electrons to MOs that are spatially
 similar to the occupied MOs in a "reference" cycle ("KeepOrbitals").
 The reference cycle is always the PREVIOUS cycle: it will evolve with
 the SCF procedure.



 ================================
 (Slater-type)  F U N C T I O N S  ***  (Basis and Fit)  ***
 ================================
  

 Atom Type    1  (O)
 ==============

 Valence Basis Sets:   8
 -----------------------
   1 S    7.360000
   2 S    1.720000
   2 S    2.880000
   2 S    7.580000
   2 P    1.120000
   2 P    2.080000
   2 P    4.080000
   3 D    2.000000

 Frozen Core Shells
 ------------------
    S:  1


 BAS: List of all Elementary Cartesian Basis Functions
 =====================================================

 The numbering in the list below (to the right of the function characteristics) is referred
 to in print-outs of MO eigenvectors and Mulliken populations in the BAS representation
 (as contrasted to the SFO representation).

 Notes:
 1. The functions are characterized by a polynomial prefactor (powers of x,y,z and r) and
    an exponential decay factor alpha.
 2. Since the basis sets are specific for an atom TYPE, the individual functions occur on
    all atoms of that type.
 3. The word 'Core' in the left margin signals that it is a Core Function (CF) : not a
    degree of freedom in the valence set, but only used to ensure orthogonalization of
    the other valence basis functions on the frozen Core Orbitals.


 (power of) X  Y  Z  R     Alpha  on Atom
            ==========     =====     ==========

 O                                    1
                                  ---------------------------------------------------------------------------
    Core    0  0  0  0     7.360      1
            0  0  0  1     1.720      2
            0  0  0  1     2.880      3
            0  0  0  1     7.580      4
            1  0  0  0     1.120      5
            0  1  0  0     1.120      6
            0  0  1  0     1.120      7
            1  0  0  0     2.080      8
            0  1  0  0     2.080      9
            0  0  1  0     2.080     10
            1  0  0  0     4.080     11
            0  1  0  0     4.080     12
            0  0  1  0     4.080     13
            2  0  0  0     2.000     14
            1  1  0  0     2.000     15
            1  0  1  0     2.000     16
            0  2  0  0     2.000     17
            0  1  1  0     2.000     18
            0  0  2  0     2.000     19

 Total number of charge fitting functions (nprimf)        82
 Total number of Cartesian basis functions (naos)         19
 Total number of Cartesian core functions  (ncos)          1



 BAS: List of all Elementary Cartesian Basis Functions
 =====================================================

 The numbering in the list below (to the right of the function characteristics) is referred
 to in print-outs of MO eigenvectors and Mulliken populations in the BAS representation
 (as contrasted to the SFO representation).

 Notes:
 1. The functions are characterized by a polynomial prefactor (powers of x,y,z and r) and
    an exponential decay factor alpha.
 2. Since the basis sets are specific for an atom TYPE, the individual functions occur on
    all atoms of that type.
 3. The word 'Core' in the left margin signals that it is a Core Function (CF) : not a
    degree of freedom in the valence set, but only used to ensure orthogonalization of
    the other valence basis functions on the frozen Core Orbitals.


 (power of) X  Y  Z  R     Alpha  on Atom
            ==========     =====     ==========

 O                                    1
                                  ---------------------------------------------------------------------------
    Core    0  0  0  0     7.360      1
            0  0  0  1     1.720      2
            0  0  0  1     2.880      3
            0  0  0  1     7.580      4
            1  0  0  0     1.120      5
            0  1  0  0     1.120      6
            0  0  1  0     1.120      7
            1  0  0  0     2.080      8
            0  1  0  0     2.080      9
            0  0  1  0     2.080     10
            1  0  0  0     4.080     11
            0  1  0  0     4.080     12
            0  0  1  0     4.080     13
            2  0  0  0     2.000     14
            1  1  0  0     2.000     15
            1  0  1  0     2.000     16
            0  2  0  0     2.000     17
            0  1  1  0     2.000     18
            0  0  2  0     2.000     19
1
 ***************************************************************************************************



                                              ***********************
                                              *  T E C H N I C A L  *
                                              ***********************
  



 =============================================================
 P A R A L L E L I Z A T I O N  and  V E C T O R I Z A T I O N
 =============================================================
  
 Nr of parallel processes:                                1
 Maximum vector length in NumInt loops:                 128



 =====================
 S C F   U P D A T E S
 =====================
  
 Max. nr. of cycles:                               300
 Convergence criterion:                              0.0000000100
   secondary criterion:                              0.0000000100

 Mix parameter (when DIIS does not apply):           0.2000000000
 Special mix parameter for the first cycle:          1.0000000000
 Mixed ADIIS+SDIIS will be used                  
    Max number of expansion vectors:                10
    Pure ADIIS when Max([F,P]) is above              0.1000000000
    Pure SDIIS when Max([F,P]) is below              0.0010000000
 Automatic ElectronSmearing (in case of problematic SCF convergence) disabled



 =================
 P R E C I S I O N  ***  (General: NumInt, NeglectFunctionTails, ...)  ***
 =================
  

 NumInt:           Target precision:                12.0000000000
 -------           Initial precision:               10.0000000000
                   Min. precision (optimization):   10.0000000000

 Neglect Functions:          Basis functions:        0.1000000000E-13
 ------------------          Fit functions:          0.1000000000E-13



 ===========================
 L I N E A R   S C A L I N G
 ===========================
  

 Cut-off radii density fit:                        0.1000000000E-97
 Overlap cut-off criterion AO matrix elements:     0.1000000000E-97
 Cut-offs for Coulomb potential and fitted density:0.1000000000E-97
 Cut-off criterion for Coulomb multipole terms:    0.1000000000E-97
 Progressive Convergence parameter:                 0.000000000    
1
 ***************************************************************************************************



                                            ***************************
                                            *  C O M P U T A T I O N  *
                                            ***************************
  

 Number of elements of the density matrix on this node (used, total):       190       190



 ===========================================
 Numerical Integration : Fuzzy Cells (Becke)
 ===========================================
  
 Becke grid quality: VERYGOOD       
  
 Lebedev angular grid order:             min:  13 max:  41
 Nr. of radial points:                   min:  68 max:  68

 Total nr. of points:         68
 Nr. of blocks:                1
 Block length:                68
 Nr. of dummy points:          0


 Test of Precision of the Numerical Integration Grid
 ===================================================

 Integral of the Total Core Density:                   1.99999999865610
 Relative Error:                                      -6.720E-10



 ========================
 Density Fitting (zlmFit)
 ========================
  
 ZlmFit Fit Quality: VERYGOOD       
  
 Max L-expansion:                        min:   0 max:   0
 Nr. of radial interpolation points:     min: 140 max: 140



 =====
 S C F  ***  ScaSCF  ***
 =====
  

 CYCLE    1
 SCF Error: norm([F,P])=      0.000000000000, max([F,P])=      0.000000000000
 orbitals (Q,E):
 ---------------
 S :1...3            ( 2.00    -5.3654)  ( 0.00    -2.2073)  ( 0.00    23.6692)
 P :1...3            ( 4.00    -5.0045)  ( 0.00    -2.0150)  ( 0.00    -0.3846)
 D :1...1            ( 0.00    -2.0410)

 CYCLE    2
 SCF Error: norm([F,P])=      4.562993374873, max([F,P])=      2.528971113813
 orbitals (Q,E):
 ---------------
 S :1...2            ( 2.00    -0.1548)  ( 0.00     1.6948)
 P :1...2            ( 4.00     0.1773)  ( 0.00     0.9552)
 D :1...1            ( 0.00     1.4649)

 CYCLE    3
  SDIIS (wt  0.000):  0.3378  0.6622
 A-DIIS (wt  1.000):  0.4814  0.5186
  DIIS coefficients:  0.4814  0.5186
 SCF Error: norm([F,P])=      2.723155250500, max([F,P])=      1.798667049295
 orbitals (Q,E):
 ---------------
 S :1...2            ( 2.00    -1.1093)  ( 0.00     0.7549)
 P :1...2            ( 4.00    -0.5518)  ( 0.00     0.2590)
 D :1...1            ( 0.00     0.8910)

 CYCLE    4
  SDIIS (wt  0.000):  0.0919  0.9081
 A-DIIS (wt  1.000):  0.0000  1.0000
  DIIS coefficients:  0.0000  1.0000
 SCF Error: norm([F,P])=      0.289027138405, max([F,P])=      0.130648623511
 orbitals (Q,E):
 ---------------
 S :1...2            ( 2.00    -0.7707)  ( 0.00     0.9912)
 P :1...2            ( 4.00    -0.2284)  ( 0.00     0.4046)
 D :1...1            ( 0.00     1.1288)

 CYCLE    5
  SDIIS (wt  0.000):  0.0260  0.6740  0.3001
 A-DIIS (wt  1.000):  0.0000  0.5764  0.4236
  DIIS coefficients:  0.0000  0.5764  0.4236
 SCF Error: norm([F,P])=      0.416615089426, max([F,P])=      0.232643669786
 orbitals (Q,E):
 ---------------
 S :1...2            ( 2.00    -0.8764)  ( 0.00     0.9107)
 P :1...2            ( 4.00    -0.3280)  ( 0.00     0.3557)
 D :1...1            ( 0.00     1.0703)

 CYCLE    6
  SDIIS (wt  0.942):  0.0005  0.0237 -0.0203  0.9960
 A-DIIS (wt  0.058):  0.0000  0.0000  0.0000  1.0000
  DIIS coefficients:  0.0005  0.0224 -0.0191  0.9962
 SCF Error: norm([F,P])=      0.013723272809, max([F,P])=      0.006719036732
 orbitals (Q,E):
 ---------------
 S :1...2            ( 2.00    -0.8830)  ( 0.00     0.9058)
 P :1...2            ( 4.00    -0.3343)  ( 0.00     0.3521)
 D :1...1            ( 0.00     1.0657)

 CYCLE    7
  SDIIS (wt  1.000): -0.0000  0.0016  0.0023  0.0424  0.9537
  DIIS coefficients: -0.0000  0.0016  0.0023  0.0424  0.9537
 SCF Error: norm([F,P])=      0.001103645928, max([F,P])=      0.000634039171
 orbitals (Q,E):
 ---------------
 S :1...2            ( 2.00    -0.8827)  ( 0.00     0.9060)
 P :1...2            ( 4.00    -0.3340)  ( 0.00     0.3523)
 D :1...1            ( 0.00     1.0659)

 CYCLE    8
  SDIIS (wt  1.000): -0.0000 -0.0001  0.0000 -0.0032  0.0268  0.9765
  DIIS coefficients: -0.0000 -0.0001  0.0000 -0.0032  0.0268  0.9765
 SCF Error: norm([F,P])=      0.000035919805, max([F,P])=      0.000020263970
 orbitals (Q,E):
 ---------------
 S :1...2            ( 2.00    -0.8827)  ( 0.00     0.9060)
 P :1...2            ( 4.00    -0.3340)  ( 0.00     0.3522)
 D :1...1            ( 0.00     1.0659)

 CYCLE    9
  SDIIS (wt  1.000): -0.0000  0.0008  0.0188  0.9804
  DIIS coefficients: -0.0000  0.0008  0.0188  0.9804
 SCF Error: norm([F,P])=      0.000000326384, max([F,P])=      0.000000183924
 orbitals (Q,E):
 ---------------
 S :1...2            ( 2.00    -0.8827)  ( 0.00     0.9060)
 P :1...2            ( 4.00    -0.3340)  ( 0.00     0.3522)
 D :1...1            ( 0.00     1.0659)

 CYCLE   10
  SDIIS (wt  1.000):  0.0000  0.0003  0.9996
  DIIS coefficients:  0.0000  0.0003  0.9996
 SCF Error: norm([F,P])=      0.000000000559, max([F,P])=      0.000000000306
 orbitals (Q,E):
 ---------------
 S :1...2            ( 2.00    -0.8827)  ( 0.00     0.9060)
 P :1...2            ( 4.00    -0.3340)  ( 0.00     0.3522)
 D :1...1            ( 0.00     1.0659)

 SCF CONVERGED

 CYCLE   11
1
 ***************************************************************************************************



                                                *******************
                                                *  R E S U L T S  *
                                                *******************
  
 *** Using FIT density in Focky
  SDIIS (wt  1.000): -0.0000  0.0143  0.9857
  DIIS coefficients: -0.0000  0.0143  0.9857
 SCF Error: norm([F,P])=      0.000000000010, max([F,P])=      0.000000000006

 Scaled ZORA Orbital Energies, per Irrep and Spin:
 =================================================
                        Occup              E (au)              E (eV)       Diff (eV) with prev. cycle
                        -----      --------------------        ------       --------------------------
 S
               1        2.000     -0.88272313143209E+00       -24.020              -9.28E-11
               2        0.000      0.90601345014671E+00        24.654
               3        0.000      0.29578810816937E+02       804.880
 P
               1        4.000     -0.33400585272070E+00        -9.089              -8.94E-11
               2        0.000      0.35224911365993E+00         9.585
               3        0.000      0.38342927625315E+01       104.336
 D
               1        0.000      0.10658965783141E+01        29.005


 Partially Occupied:
               1 P                -0.33400585272070E+00
  
 HOMO :        1 S                -0.88272313143209E+00
 LUMO :        2 P                 0.35224911365993E+00
  


 Orbital Energies, all Irreps
 ========================================

 Irrep        no.  (spin)   Occup              E (au)                E (eV)
 ---------------------------------------------------------------------------
 S             1             2.00       -0.88272313143209E+00       -24.0201
 P             1             4.00       -0.33400585272070E+00        -9.0888
 P             2             0.00        0.35224911365993E+00         9.5852
 S             2             0.00        0.90601345014671E+00        24.6539
 D             1             0.00        0.10658965783141E+01        29.0045
 P             3             0.00        0.38342927625315E+01       104.3364
 S             3             0.00        0.29578810816937E+02       804.8804


 Scaled ZORA Orbital Energies of the Core Orbitals:
 ==================================================

 (Note that the atoms are grouped by atomtype, see the labels, and may hence NOT be in input order)

 AtomType  Orbital  Atom                   E (au)                        E (eV)
 --------  -------  ----           --------------------        ----------------
 O           1S        1          -0.18925919758629E+02                -515.000



 =======================================
 M U L L I K E N   P O P U L A T I O N S
 =======================================
  
 The survey below gives for each atom:
 a) the total charge (Z minus electrons)
 b) the net spin polarization (nr of electrons spin-A minus spin-B)
 c) for each spin the atomic electron valence density (integrated) per L-value.

 Atom              Charge    Spin density          S         P         D         F
 ----              ------    ------------       ------    ------    ------    ------
 1 O              -0.0000                       2.0000    4.0000    0.0000    0.0000

 Populations of individual BAS functions
 ----------------------------------------
 1 O            0.0005  0.9226  1.0966 -0.0196  0.3346  0.3346  0.3346  0.7512  0.7512  0.7512
                0.2476  0.2476  0.2476  0.0000  0.0000  0.0000  0.0000  0.0000  0.0000

 Gross Charges per Atom (Z minus electrons)
 ==========================================
            -0.0000
 Net Total: -0.00000000



 =======================================================================
 Electrostatic potential at the Nuclei due to electrons and other nuclei
 =======================================================================
  
         Atom                  Potential
         ----                  ---------
     1)   O                  22.20265662
 
 
 ========================
 No memory problems found
 ========================
 
 Maximum number of active allocate calls:         389
 
 *******************************************************************************

                             A D F   E X I T
 NORMAL TERMINATION



 =================
 Timing Statistics
 =================
  
 Total Used :                     CPU=        0.41      System=        0.04     Elapsed=        0.48

 Calls  Section                     ( Mean, Percentage )
 ---------------------------------------------------------------------------------------------------
     3  ><      ................      0.00    0.00             0.00    9.09             0.00    0.89
     1  INIT    ................      0.07   16.67             0.01   18.18             0.08   16.05
     1  GEOMET  ................      0.01    1.96             0.01   18.18             0.02    4.68
     1  INPUTA  ................      0.00    0.98             0.00    0.00             0.00    0.71
     1  MAINSY  ................      0.00    0.98             0.00    9.09             0.01    2.79
     1  SYMFIT  ................      0.00    0.98             0.00    0.00             0.00    0.34
     1  CORORT  ................      0.00    0.00             0.00    0.00             0.00    0.30
     1  SYMORB  ................      0.00    0.00             0.00    0.00             0.00    0.18
     1  CLSMAT  ................      0.00    0.98             0.00    9.09             0.01    1.20
     1  ORTHON  ................      0.00    0.98             0.00    0.00             0.01    1.08
     1  GENPT   ................      0.01    2.94             0.00    0.00             0.02    3.12
     1  PTBAS   ................      0.00    0.98             0.00    0.00             0.01    1.14
    11  FOCKY   ................      0.02   57.84             0.00   18.18             0.02   51.63
    11  FOCKTR  ................      0.00    0.98             0.00    0.00             0.00    1.56
    11  SDIIS   ................      0.00    5.88             0.00    9.09             0.00    6.41
     1  COREPS  ................      0.01    2.94             0.00    9.09             0.02    3.65
     1  POPAN   ................      0.00    0.98             0.00    0.00             0.01    1.13
     1  DEBYE   ................      0.00    0.98             0.00    0.00             0.00    0.40
     1  EXIT PROCEDURE .........      0.01    2.94             0.00    0.00             0.01    2.75


 Currently Open Files (EXIT00)
 ====================

 Unit    Access Format  Status   Type       Ident (file)
 -------------------------------------------------------
   3      SEQ    FORM   TRANSP  NORMAL      LOGFILE
                                          ( logfile )

 ***************************************************************************************************
 (LOGFILE)
 <Sep08-2020> <22:19:59>  DIRAC 2019  RunTime: Sep08-2020 22:19:59  Nodes: 1  Procs: 1
 <Sep08-2020> <22:19:59>  NORMAL TERMINATION
 <Sep08-2020> <22:19:59>  END
 <Sep08-2020> <22:19:59>  ADF 2019  RunTime: Sep08-2020 22:19:59  Nodes: 1  Procs: 1
 <Sep08-2020> <22:19:59>  Oxygen (TZP, 1s frozen)
 <Sep08-2020> <22:19:59>  RunType   : CREATE
 <Sep08-2020> <22:19:59>  Net Charge: 0 (Nuclei minus Electrons)
 <Sep08-2020> <22:19:59>  Symmetry  : ATOM
  Coordinates
    Atom         X           Y           Z   (Angstrom)
    1.O         0.000000    0.000000    0.000000
 <Sep08-2020> <22:19:59>  >>>> CORORT
 <Sep08-2020> <22:19:59>  >>>> CLSMAT
 <Sep08-2020> <22:19:59>  >>>> ORTHON
 <Sep08-2020> <22:19:59>  >>>> GENPT
 <Sep08-2020> <22:19:59>  Block Length=  68
 <Sep08-2020> <22:19:59>  >>>> PTBAS
 <Sep08-2020> <22:19:59>  >>>> CYCLE
 <Sep08-2020> <22:19:59>              |Error|         MaxErr       Wt(A-DIIS)
 <Sep08-2020> <22:19:59>      1      0.00000000      0.00000000
 <Sep08-2020> <22:19:59>      2      4.56299337      2.52897111
 <Sep08-2020> <22:19:59>      3      2.72315525      1.79866705    100.0
 <Sep08-2020> <22:19:59>      4      0.28902714      0.13064862    100.0
 <Sep08-2020> <22:19:59>      5      0.41661509      0.23264367    100.0
 <Sep08-2020> <22:19:59>      6      0.01372327      0.00671904      5.8
 <Sep08-2020> <22:19:59>      7      0.00110365      0.00063404      0.0
 <Sep08-2020> <22:19:59>      8      0.00003592      0.00002026      0.0
 <Sep08-2020> <22:19:59>      9      0.00000033      0.00000018      0.0
 <Sep08-2020> <22:20:00>     10      0.00000000      0.00000000      0.0
 <Sep08-2020> <22:20:00>  SCF converged
 <Sep08-2020> <22:20:00>     11      0.00000000      0.00000000      0.0
 <Sep08-2020> <22:20:00>  >>>> POPAN
 <Sep08-2020> <22:20:00>  >>>> DEBYE
 <Sep08-2020> <22:20:00>  NORMAL TERMINATION
 <Sep08-2020> <22:20:00>  END

 *******************************************************************************
 *                                                                             *
 *  -------------------------------------                                      *
 *   Amsterdam Density Functional  (ADF)         2019                          *
 *  -------------------------------------                                      *
 *                                               r79301 2019-11-09             *
 *                                                                             *
 *                                                                             *
 *                            =====================                            *
 *                            |                   |                            *
 *                            |     D I R A C     |                            *
 *                            |                   |                            *
 *                            =====================                            *
 *                                                                             *
 *                                                                             *
 *   Online information and documentation:  https://www.scm.com/support/       *
 *   E-mail:  support@scm.com   info@scm.com                                   *
 *                                                                             *
 *   Scientific publications using ADF results must be properly referenced     *
 *   See the User Manuals (or the web site) for recommended citations          *
 *   The terms and conditions of the End User License Agreement apply to       *
 *   the use of ADF, https://www.scm.com/license-terms/                        *
 *                                                                             *
 **********************  x86_64_linux_intel / intelmpi  ************************
 
 
 
  
 DIRAC 2019  RunTime: Sep08-2020 22:20:00  Nodes: 1  Procs: 1

 Temporary files are created in /scratch/kid_0.480050731 (0x58465342)

1
 TUNGSTEN ATOM 4d CORE RELATIVISTIC, Point Nuc, A and c from 
 N J RN H ZN XION ANUC CLIGHT
 5000   22100.00000000197.36710137 74.00000000  0.00000000  183.950932  0.1370360E+03
  PH   PHI     EPS        DEL        DELRVR
  0.30  0.30     2500.00  0.00001000  0.00001000
 IDIRC  NC1  NDEBU NPRIN  IPUN IRCOR IWCOR
   1   300     0     0     0     0    14
   XALPHA      XLATTER      RNUC
  0.70000000  0.00000000  0.00000000 Point Charge
   XN   XL   XJ      XE          XZ      XDELL
  1.0  0.0  0.5   -2600.000       2.000     0.00000
  2.0  0.0  0.5    -425.000       2.000     0.00000
  2.0  1.0  0.5    -425.000       2.000     0.00000
  2.0  1.0  1.5    -425.000       4.000     0.00000
  3.0  0.0  0.5    -100.000       2.000     0.00000
  3.0  1.0  0.5    -100.000       2.000     0.00000
  3.0  1.0  1.5    -100.000       4.000     0.00000
  3.0  2.0  1.5     -80.000       4.000     0.00000
  3.0  2.0  2.5     -80.000       6.000     0.00000
  4.0  0.0  0.5     -22.000       2.000     0.00000
  4.0  1.0  0.5     -20.000       2.000     0.00000
  4.0  1.0  1.5     -20.000       4.000     0.00000
  4.0  2.0  1.5     -11.000       4.000     0.00000
  4.0  2.0  2.5     -11.000       6.000     0.00000
  4.0  3.0  2.5      -1.000       6.000     0.00000
  4.0  3.0  3.5      -1.000       8.000     0.00000
  5.0  0.0  0.5      -3.000       2.000     0.00000
  5.0  1.0  0.5      -2.200       2.000     0.00000
  5.0  1.0  1.5      -2.200       4.000     0.00000
  5.0  2.0  1.5      -0.500       4.000     0.00000
  5.0  2.0  2.5      -0.500       0.000     0.00000
  6.0  0.0  0.5      -0.200       2.000     0.00000
 ICORP=  0  NPCL=  0  DEMP=0.00  PEPS=0.000000
 R(1)=  0.1000000E-08 D=  0.1005080E+01 RNUC=  0.0000000E+00
 converged at cycle   63  DENSITY AVERAGING    0.1536
  MAXIMUM ERROR IN R.V(R) IS   0.78838062E-05
 Q,EY,EV,EZ,ESUM,ETOT,RHO  0.740000E+02 -0.431420E+03 -0.281568E+05 -0.403919E+05 -0.993885E+04 -0.161643E+05  0.726391E-09


 DIRAC CALCULATION
1                    TUNGSTEN ATOM 4d CORE RELATIVISTIC, Point Nuc, A and c from libtc


 EXCHANGE COEFFICIENT=  0.7000000           TAIL CORRECTION=  0.           NUCLEAR RADIUS=  0.000E+00
0                       ORBITAL    N    L    J     ELECTRONS     EIGENVALUE                DELTA OF EIGENV.

                          1S1/2  1.0  0.0  0.5     2.000       -0.2549514E+04                 0.5980248E-04
                          2S1/2  2.0  0.0  0.5     2.000       -0.4399118E+03                 0.5052420E-04
                          2P1/2  2.0  1.0  0.5     2.000       -0.4208427E+03                 0.5265062E-04
                          2P3/2  2.0  1.0  1.5     4.000       -0.3711192E+03                 0.5139441E-04
                          3S1/2  3.0  0.0  0.5     2.000       -0.1012881E+03                 0.3437035E-04
                          3P1/2  3.0  1.0  0.5     2.000       -0.9277148E+02                 0.3553128E-04
                          3P3/2  3.0  1.0  1.5     4.000       -0.8201733E+02                 0.3404634E-04
                          3D3/2  3.0  2.0  1.5     4.000       -0.6762803E+02                 0.3680712E-04
                          3D5/2  3.0  2.0  2.5     6.000       -0.6528623E+02                 0.3629511E-04
                          4S1/2  4.0  0.0  0.5     2.000       -0.2084139E+02                 0.1939427E-04
                          4P1/2  4.0  1.0  0.5     2.000       -0.1730737E+02                 0.1933978E-04
                          4P3/2  4.0  1.0  1.5     4.000       -0.1480597E+02                 0.1810922E-04
                          4D3/2  4.0  2.0  1.5     4.000       -0.8989319E+01                 0.1779394E-04
                          4D5/2  4.0  2.0  2.5     6.000       -0.8528007E+01                 0.1741170E-04
                          4F5/2  4.0  3.0  2.5     6.000       -0.1237480E+01                 0.1544089E-04
                          4F7/2  4.0  3.0  3.5     8.000       -0.1154634E+01                 0.1522033E-04
                          5S1/2  5.0  0.0  0.5     2.000       -0.2863514E+01                 0.7979521E-05
                          5P1/2  5.0  1.0  0.5     2.000       -0.1813289E+01                 0.7246225E-05
                          5P3/2  5.0  1.0  1.5     4.000       -0.1448762E+01                 0.6602120E-05
                          5D3/2  5.0  2.0  1.5     4.000       -0.1486933E+00                 0.3973088E-05
                          5D5/2  5.0  2.0  2.5     0.000       -0.1223153E+00                 0.3735081E-05
                          6S1/2  6.0  0.0  0.5     2.000       -0.1847434E+00                 0.1808440E-05


                                        NUCLEAR CHARGE=   74.000000
                            INTEGRAL OF CHARGE DENSITY=   74.000000
                           SUM OF THE ORBITAL ENERGIES=  -9938.8529
                                          TOTAL ENERGY= -16164.2530
                                        KINETIC ENERGY=  18217.9700
                             NUCLEAR ATTRACTION ENERGY= -40391.9132
                             ELECTRON REPULSION ENERGY=   6333.2551
                                       EXCHANGE ENERGY=   -323.5649

 *******************************************************************************

                             D I R A C   E X I T
 NORMAL TERMINATION



 =================
 Timing Statistics
 =================
  
 Total Used :                     CPU=        0.67      System=        0.01     Elapsed=        0.69

 Calls  Section                     ( Mean, Percentage )
 ---------------------------------------------------------------------------------------------------
     2  ><      ................      0.00    0.00             0.00    0.00             0.00    0.00
     1  EXIT PROCEDURE .........      0.67  100.00             0.01  100.00             0.69  100.00


 Currently Open Files (EXIT00)
 ====================

 Unit    Access Format  Status   Type       Ident (file)
 -------------------------------------------------------
   3      SEQ    FORM   TRANSP  NORMAL      LOGFILE
                                          ( logfile )
 
Create W   file=TZP-W.4d
XC
  GGA PBE
End
relativistic ZORA
Corepotentials t12.rel
End

 *******************************************************************************
 *                                                                             *
 *  -------------------------------------                                      *
 *   Amsterdam Density Functional  (ADF)         2019                          *
 *  -------------------------------------                                      *
 *                                               r79301 2019-11-09             *
 *                                                                             *
 *                                                                             *
 *                              =================                              *
 *                              |               |                              *
 *                              |     A D F     |                              *
 *                              |               |                              *
 *                              =================                              *
 *                                                                             *
 *                                                                             *
 *   Online information and documentation:  https://www.scm.com/support/       *
 *   E-mail:  support@scm.com   info@scm.com                                   *
 *                                                                             *
 *   Scientific publications using ADF results must be properly referenced     *
 *   See the User Manuals (or the web site) for recommended citations          *
 *   The terms and conditions of the End User License Agreement apply to       *
 *   the use of ADF, https://www.scm.com/license-terms/                        *
 *                                                                             *
 **********************  x86_64_linux_intel / intelmpi  ************************
 
 
 
  
 ADF 2019  RunTime: Sep08-2020 22:20:00  Nodes: 1  Procs: 1

 Temporary files are created in /scratch/kid_0.1305810115 (0x58465342)

 Tungsten (TZP, 4d frozen)



 ===========================
 A T T A C H E D   F I L E S
 ===========================
  
 CREATE - Data File:    TZP-W.4d
                        Tungsten (TZP, 4d frozen)
 Core Potentials:
         file : t12.rel



 ===============================
 M O D E L   P A R A M E T E R S
 ===============================
  
 DENSITY FUNCTIONAL POTENTIAL (scf)
    LDA:                               PW92                                    == Not Default ==
    Gradient Corrections:              PBEc PBEx                               == Not Default ==

 SPIN  (restricted / unrestr.)
    Molecule:                          Restricted                               

 OTHER ASPECTS
    Relativistic Corrections:          scalar (ZORA,MAPA)                      == Not Default ==

    Nuclear Charge Density Model:      Point Charge Nuclei                      
    Core Treatment:                    Frozen Orbital(s)                        

    Hyperfine or Zeeman Interaction:   ---                                      



 =====================================
 S Y M M E T R Y ,   E L E C T R O N S
 =====================================
  
 Symmetry: ATOM

 Irreducible Representations, including subspecies
 -------------------------------------------------
 S
 P:x  P:y  P:z
 D:z2  D:x2-y2  D:xy  D:xz  D:yz
 F:z3  F:z  F:xyz  F:z2x  F:z2y  F:x  F:y


 Configuration of Valence Electrons
 ==================================

          Occupation Numbers
          -------------------------------------------------
 S        2*2
 P        6
 D        4
 F        14
          -------------------------------------------------

 Total:   28

 Net Charge: 0 (Nuclei minus Electrons)

 Preset values for MO occupations will be applied through SCF cycle no. 1000000
 Thereafter, the program will assign electrons to MOs that are spatially
 similar to the occupied MOs in a "reference" cycle ("KeepOrbitals").
 The reference cycle is always the PREVIOUS cycle: it will evolve with
 the SCF procedure.



 ================================
 (Slater-type)  F U N C T I O N S  ***  (Basis and Fit)  ***
 ================================
  

 Atom Type    1  (W)
 ==============

 Valence Basis Sets:  25
 -----------------------
   1 S   52.000000
   2 S   33.250000
   3 S   19.100000
   4 S   11.650000
   2 P   36.850000
   3 P   16.500000
   4 P   11.550000
   3 D   20.100000
   4 D   10.300000
   1 S  163.900000
   5 S    6.050000
   5 S    3.950000
   6 S    2.850000
   6 S    1.800000
   6 S    1.140000
   5 P    5.900000
   5 P    4.000000
   5 P    2.700000
   5 D    4.150000
   5 D    2.250000
   5 D    1.200000
   4 F   13.550000
   4 F    7.050000
   4 F    3.550000
   6 P    1.800000

 Frozen Core Shells
 ------------------
    S:  4
    P:  3
    D:  2


 BAS: List of all Elementary Cartesian Basis Functions
 =====================================================

 The numbering in the list below (to the right of the function characteristics) is referred
 to in print-outs of MO eigenvectors and Mulliken populations in the BAS representation
 (as contrasted to the SFO representation).

 Notes:
 1. The functions are characterized by a polynomial prefactor (powers of x,y,z and r) and
    an exponential decay factor alpha.
 2. Since the basis sets are specific for an atom TYPE, the individual functions occur on
    all atoms of that type.
 3. The word 'Core' in the left margin signals that it is a Core Function (CF) : not a
    degree of freedom in the valence set, but only used to ensure orthogonalization of
    the other valence basis functions on the frozen Core Orbitals.


 (power of) X  Y  Z  R     Alpha  on Atom
            ==========     =====     ==========

 W                                    1
                                  ---------------------------------------------------------------------------
    Core    0  0  0  0    52.000      1
    Core    0  0  0  1    33.250      2
    Core    0  0  0  2    19.100      3
    Core    0  0  0  3    11.650      4
    Core    1  0  0  0    36.850      5
    Core    0  1  0  0    36.850      6
    Core    0  0  1  0    36.850      7
    Core    1  0  0  1    16.500      8
    Core    0  1  0  1    16.500      9
    Core    0  0  1  1    16.500     10
    Core    1  0  0  2    11.550     11
    Core    0  1  0  2    11.550     12
    Core    0  0  1  2    11.550     13
    Core    2  0  0  0    20.100     14
    Core    1  1  0  0    20.100     15
    Core    1  0  1  0    20.100     16
    Core    0  2  0  0    20.100     17
    Core    0  1  1  0    20.100     18
    Core    0  0  2  0    20.100     19
    Core    2  0  0  1    10.300     20
    Core    1  1  0  1    10.300     21
    Core    1  0  1  1    10.300     22
    Core    0  2  0  1    10.300     23
    Core    0  1  1  1    10.300     24
    Core    0  0  2  1    10.300     25
            0  0  0  0   163.900     26
            0  0  0  4     6.050     27
            0  0  0  4     3.950     28
            0  0  0  5     2.850     29
            0  0  0  5     1.800     30
            0  0  0  5     1.140     31
            1  0  0  3     5.900     32
            0  1  0  3     5.900     33
            0  0  1  3     5.900     34
            1  0  0  3     4.000     35
            0  1  0  3     4.000     36
            0  0  1  3     4.000     37
            1  0  0  3     2.700     38
            0  1  0  3     2.700     39
            0  0  1  3     2.700     40
            2  0  0  2     4.150     41
            1  1  0  2     4.150     42
            1  0  1  2     4.150     43
            0  2  0  2     4.150     44
            0  1  1  2     4.150     45
            0  0  2  2     4.150     46
            2  0  0  2     2.250     47
            1  1  0  2     2.250     48
            1  0  1  2     2.250     49
            0  2  0  2     2.250     50
            0  1  1  2     2.250     51
            0  0  2  2     2.250     52
            2  0  0  2     1.200     53
            1  1  0  2     1.200     54
            1  0  1  2     1.200     55
            0  2  0  2     1.200     56
            0  1  1  2     1.200     57
            0  0  2  2     1.200     58
            3  0  0  0    13.550     59
            2  1  0  0    13.550     60
            2  0  1  0    13.550     61
            1  2  0  0    13.550     62
            1  1  1  0    13.550     63
            1  0  2  0    13.550     64
            0  3  0  0    13.550     65
            0  2  1  0    13.550     66
            0  1  2  0    13.550     67
            0  0  3  0    13.550     68
            3  0  0  0     7.050     69
            2  1  0  0     7.050     70
            2  0  1  0     7.050     71
            1  2  0  0     7.050     72
            1  1  1  0     7.050     73
            1  0  2  0     7.050     74
            0  3  0  0     7.050     75
            0  2  1  0     7.050     76
            0  1  2  0     7.050     77
            0  0  3  0     7.050     78
            3  0  0  0     3.550     79
            2  1  0  0     3.550     80
            2  0  1  0     3.550     81
            1  2  0  0     3.550     82
            1  1  1  0     3.550     83
            1  0  2  0     3.550     84
            0  3  0  0     3.550     85
            0  2  1  0     3.550     86
            0  1  2  0     3.550     87
            0  0  3  0     3.550     88
            1  0  0  4     1.800     89
            0  1  0  4     1.800     90
            0  0  1  4     1.800     91

 Total number of charge fitting functions (nprimf)       329
 Total number of Cartesian basis functions (naos)         91
 Total number of Cartesian core functions  (ncos)         25



 BAS: List of all Elementary Cartesian Basis Functions
 =====================================================

 The numbering in the list below (to the right of the function characteristics) is referred
 to in print-outs of MO eigenvectors and Mulliken populations in the BAS representation
 (as contrasted to the SFO representation).

 Notes:
 1. The functions are characterized by a polynomial prefactor (powers of x,y,z and r) and
    an exponential decay factor alpha.
 2. Since the basis sets are specific for an atom TYPE, the individual functions occur on
    all atoms of that type.
 3. The word 'Core' in the left margin signals that it is a Core Function (CF) : not a
    degree of freedom in the valence set, but only used to ensure orthogonalization of
    the other valence basis functions on the frozen Core Orbitals.


 (power of) X  Y  Z  R     Alpha  on Atom
            ==========     =====     ==========

 W                                    1
                                  ---------------------------------------------------------------------------
    Core    0  0  0  0    52.000      1
    Core    0  0  0  1    33.250      2
    Core    0  0  0  2    19.100      3
    Core    0  0  0  3    11.650      4
    Core    1  0  0  0    36.850      5
    Core    0  1  0  0    36.850      6
    Core    0  0  1  0    36.850      7
    Core    1  0  0  1    16.500      8
    Core    0  1  0  1    16.500      9
    Core    0  0  1  1    16.500     10
    Core    1  0  0  2    11.550     11
    Core    0  1  0  2    11.550     12
    Core    0  0  1  2    11.550     13
    Core    2  0  0  0    20.100     14
    Core    1  1  0  0    20.100     15
    Core    1  0  1  0    20.100     16
    Core    0  2  0  0    20.100     17
    Core    0  1  1  0    20.100     18
    Core    0  0  2  0    20.100     19
    Core    2  0  0  1    10.300     20
    Core    1  1  0  1    10.300     21
    Core    1  0  1  1    10.300     22
    Core    0  2  0  1    10.300     23
    Core    0  1  1  1    10.300     24
    Core    0  0  2  1    10.300     25
            0  0  0  0   163.900     26
            0  0  0  4     6.050     27
            0  0  0  4     3.950     28
            0  0  0  5     2.850     29
            0  0  0  5     1.800     30
            0  0  0  5     1.140     31
            1  0  0  3     5.900     32
            0  1  0  3     5.900     33
            0  0  1  3     5.900     34
            1  0  0  3     4.000     35
            0  1  0  3     4.000     36
            0  0  1  3     4.000     37
            1  0  0  3     2.700     38
            0  1  0  3     2.700     39
            0  0  1  3     2.700     40
            2  0  0  2     4.150     41
            1  1  0  2     4.150     42
            1  0  1  2     4.150     43
            0  2  0  2     4.150     44
            0  1  1  2     4.150     45
            0  0  2  2     4.150     46
            2  0  0  2     2.250     47
            1  1  0  2     2.250     48
            1  0  1  2     2.250     49
            0  2  0  2     2.250     50
            0  1  1  2     2.250     51
            0  0  2  2     2.250     52
            2  0  0  2     1.200     53
            1  1  0  2     1.200     54
            1  0  1  2     1.200     55
            0  2  0  2     1.200     56
            0  1  1  2     1.200     57
            0  0  2  2     1.200     58
            3  0  0  0    13.550     59
            2  1  0  0    13.550     60
            2  0  1  0    13.550     61
            1  2  0  0    13.550     62
            1  1  1  0    13.550     63
            1  0  2  0    13.550     64
            0  3  0  0    13.550     65
            0  2  1  0    13.550     66
            0  1  2  0    13.550     67
            0  0  3  0    13.550     68
            3  0  0  0     7.050     69
            2  1  0  0     7.050     70
            2  0  1  0     7.050     71
            1  2  0  0     7.050     72
            1  1  1  0     7.050     73
            1  0  2  0     7.050     74
            0  3  0  0     7.050     75
            0  2  1  0     7.050     76
            0  1  2  0     7.050     77
            0  0  3  0     7.050     78
            3  0  0  0     3.550     79
            2  1  0  0     3.550     80
            2  0  1  0     3.550     81
            1  2  0  0     3.550     82
            1  1  1  0     3.550     83
            1  0  2  0     3.550     84
            0  3  0  0     3.550     85
            0  2  1  0     3.550     86
            0  1  2  0     3.550     87
            0  0  3  0     3.550     88
            1  0  0  4     1.800     89
            0  1  0  4     1.800     90
            0  0  1  4     1.800     91
1
 ***************************************************************************************************



                                              ***********************
                                              *  T E C H N I C A L  *
                                              ***********************
  



 =============================================================
 P A R A L L E L I Z A T I O N  and  V E C T O R I Z A T I O N
 =============================================================
  
 Nr of parallel processes:                                1
 Maximum vector length in NumInt loops:                 128



 =====================
 S C F   U P D A T E S
 =====================
  
 Max. nr. of cycles:                               300
 Convergence criterion:                              0.0000000100
   secondary criterion:                              0.0000000100

 Mix parameter (when DIIS does not apply):           0.2000000000
 Special mix parameter for the first cycle:          1.0000000000
 Mixed ADIIS+SDIIS will be used                  
    Max number of expansion vectors:                10
    Pure ADIIS when Max([F,P]) is above              0.1000000000
    Pure SDIIS when Max([F,P]) is below              0.0010000000
 Automatic ElectronSmearing (in case of problematic SCF convergence) disabled



 =================
 P R E C I S I O N  ***  (General: NumInt, NeglectFunctionTails, ...)  ***
 =================
  

 NumInt:           Target precision:                12.0000000000
 -------           Initial precision:               10.0000000000
                   Min. precision (optimization):   10.0000000000

 Neglect Functions:          Basis functions:        0.1000000000E-13
 ------------------          Fit functions:          0.1000000000E-13



 ===========================
 L I N E A R   S C A L I N G
 ===========================
  

 Cut-off radii density fit:                        0.1000000000E-97
 Overlap cut-off criterion AO matrix elements:     0.1000000000E-97
 Cut-offs for Coulomb potential and fitted density:0.1000000000E-97
 Cut-off criterion for Coulomb multipole terms:    0.1000000000E-97
 Progressive Convergence parameter:                 0.000000000    
1
 ***************************************************************************************************



                                            ***************************
                                            *  C O M P U T A T I O N  *
                                            ***************************
  

 Number of elements of the density matrix on this node (used, total):      4186      4186



 ===========================================
 Numerical Integration : Fuzzy Cells (Becke)
 ===========================================
  
 Becke grid quality: VERYGOOD       
  
 Lebedev angular grid order:             min:  13 max:  41
 Nr. of radial points:                   min: 145 max: 145

 Total nr. of points:        145
 Nr. of blocks:                2
 Block length:                73
 Nr. of dummy points:          1


 Test of Precision of the Numerical Integration Grid
 ===================================================

 Integral of the Total Core Density:                  46.00000002324492
 Relative Error:                                       5.053E-10



 ========================
 Density Fitting (zlmFit)
 ========================
  
 ZlmFit Fit Quality: VERYGOOD       
  
 Max L-expansion:                        min:   0 max:   0
 Nr. of radial interpolation points:     min: 340 max: 340



 =====
 S C F  ***  ScaSCF  ***
 =====
  

 CYCLE    1
 SCF Error: norm([F,P])=      0.000000000000, max([F,P])=      0.000000000000
 orbitals (Q,E):
 ---------------
 S :1...6            ( 2.00   -28.2058)  ( 2.00   -16.4725)  ( 0.00   -10.3738)  ( 0.00    -6.6321)
                     ( 0.00    -4.0998)  ( 0.00  3013.3587)
 P :1...4            ( 6.00   -26.2502)  ( 0.00   -15.6809)  ( 0.00   -10.1451)  ( 0.00    -6.3840)
 D :1...3            ( 4.00   -20.3774)  ( 0.00   -10.3968)  ( 0.00    -5.4917)
 F :1...3            (14.00   -35.0607)  ( 0.00   -19.0417)  ( 0.00   -12.0152)

 CYCLE    2
  SDIIS (wt  0.000):  1.0000  0.0000
 A-DIIS (wt  1.000):  0.1993  0.8007
  DIIS coefficients:  0.1993  0.8007
 SCF Error: norm([F,P])=     40.907082825658, max([F,P])=      9.977402120499
 orbitals (Q,E):
 ---------------
 S :1...3            ( 2.00    -4.6780)  ( 2.00    -1.8638)  ( 0.00    -0.9989)
 P :1...2            ( 6.00    -3.4915)  ( 0.00    -1.5122)
 D :1...2            ( 4.00    -2.0619)  ( 0.00    -1.0071)
 F :1...2            (14.00    -1.8107)  ( 0.00     1.1317)

 CYCLE    3
  SDIIS (wt  0.000):  0.3180  0.6820
 A-DIIS (wt  1.000):  0.2378  0.7622
  DIIS coefficients:  0.2378  0.7622
 SCF Error: norm([F,P])=     22.137766809988, max([F,P])=      7.956550621467
 orbitals (Q,E):
 ---------------
 S :1...3            ( 2.00    -3.1832)  ( 2.00    -0.0954)  ( 0.00     0.0950)
 P :1...2            ( 6.00    -1.7164)  ( 0.00     0.0796)
 D :1...2            ( 4.00    -0.0523)  ( 0.00     0.2166)
 F :1...2            (14.00    -2.9552)  ( 0.00     2.1680)

 CYCLE    4
  SDIIS (wt  0.000): -0.1470  0.2408  0.9063
 A-DIIS (wt  1.000):  0.0000  0.1960  0.8040
  DIIS coefficients:  0.0000  0.1960  0.8040
 SCF Error: norm([F,P])=     11.319258211122, max([F,P])=      3.388378774288
 orbitals (Q,E):
 ---------------
 S :1...3            ( 2.00    -2.5382)  ( 2.00    -0.1744)  ( 0.00     0.0568)
 P :1...2            ( 6.00    -1.3109)  ( 0.00     0.0041)
 D :1...2            ( 4.00    -0.0593)  ( 0.00     0.1840)
 F :1...2            (14.00    -0.4483)  ( 0.00     2.6543)

 CYCLE    5
  SDIIS (wt  0.000): -0.0453 -0.0639  0.4150  0.6941
 A-DIIS (wt  1.000):  0.0000  0.0000  0.2956  0.7044
  DIIS coefficients:  0.0000  0.0000  0.2956  0.7044
 SCF Error: norm([F,P])=      6.468352795626, max([F,P])=      2.222974642389
 orbitals (Q,E):
 ---------------
 S :1...3            ( 2.00    -3.2723)  ( 2.00    -0.3187)  ( 0.00     0.0098)
 P :1...2            ( 6.00    -1.9237)  ( 0.00    -0.1006)
 D :1...2            ( 4.00    -0.3847)  ( 0.00     0.0899)
 F :1...2            (14.00    -1.8198)  ( 0.00     1.9560)

 CYCLE    6
  SDIIS (wt  0.000): -0.0085 -0.0399  0.0839  0.4322  0.5323
 A-DIIS (wt  1.000):  0.0000  0.0000  0.0000  0.2109  0.7891
  DIIS coefficients:  0.0000  0.0000  0.0000  0.2109  0.7891
 SCF Error: norm([F,P])=      2.472496419763, max([F,P])=      0.770355067313
 orbitals (Q,E):
 ---------------
 S :1...3            ( 2.00    -2.6997)  ( 2.00    -0.1670)  ( 0.00     0.0637)
 P :1...2            ( 6.00    -1.4226)  ( 0.00     0.0144)
 D :1...2            ( 4.00    -0.0756)  ( 0.00     0.1818)
 F :1...2            (14.00    -0.9561)  ( 0.00     2.4590)

 CYCLE    7
  SDIIS (wt  0.000): -0.0027  0.0194 -0.0224 -0.1264  0.3712  0.7611
 A-DIIS (wt  1.000):  0.0000  0.0000  0.0000  0.0000  0.2987  0.7013
  DIIS coefficients:  0.0000  0.0000  0.0000  0.0000  0.2987  0.7013
 SCF Error: norm([F,P])=      1.326888571519, max([F,P])=      0.409877416513
 orbitals (Q,E):
 ---------------
 S :1...3            ( 2.00    -2.9765)  ( 2.00    -0.2356)  ( 0.00     0.0368)
 P :1...2            ( 6.00    -1.6652)  ( 0.00    -0.0389)
 D :1...2            ( 4.00    -0.2166)  ( 0.00     0.1330)
 F :1...2            (14.00    -1.3505)  ( 0.00     2.2150)

 CYCLE    8
  SDIIS (wt  0.000): -0.0001 -0.0032  0.0101  0.0022 -0.1365  0.1637  0.9637
 A-DIIS (wt  1.000):  0.0000  0.0000  0.0000  0.0000  0.0000  0.1133  0.8867
  DIIS coefficients:  0.0000  0.0000  0.0000  0.0000  0.0000  0.1133  0.8867
 SCF Error: norm([F,P])=      0.417265552811, max([F,P])=      0.123103983384
 orbitals (Q,E):
 ---------------
 S :1...3            ( 2.00    -2.8269)  ( 2.00    -0.1934)  ( 0.00     0.0514)
 P :1...2            ( 6.00    -1.5319)  ( 0.00    -0.0062)
 D :1...2            ( 4.00    -0.1328)  ( 0.00     0.1598)
 F :1...2            (14.00    -1.1429)  ( 0.00     2.3483)

 CYCLE    9
  SDIIS (wt  0.000): -0.0000 -0.0005  0.0032 -0.0055 -0.0134 -0.0769  0.3889  0.7044
 A-DIIS (wt  1.000):  0.0000  0.0000  0.0000  0.0000  0.0000  0.0000  0.4605  0.5395
  DIIS coefficients:  0.0000  0.0000  0.0000  0.0000  0.0000  0.0000  0.4605  0.5395
 SCF Error: norm([F,P])=      0.436344656895, max([F,P])=      0.135977974745
 orbitals (Q,E):
 ---------------
 S :1...3            ( 2.00    -2.8921)  ( 2.00    -0.2089)  ( 0.00     0.0455)
 P :1...2            ( 6.00    -1.5884)  ( 0.00    -0.0182)
 D :1...2            ( 4.00    -0.1653)  ( 0.00     0.1491)
 F :1...2            (14.00    -1.2444)  ( 0.00     2.2903)

 CYCLE   10
  SDIIS (wt  0.791): -0.0000 -0.0000 -0.0008  0.0050  0.0002 -0.0572  0.0662  0.2518  0.7349
 A-DIIS (wt  0.209):  0.0000  0.0000  0.0000  0.0000  0.0000  0.0000  0.0000  0.0000  1.0000
  DIIS coefficients: -0.0000 -0.0000 -0.0006  0.0039  0.0002 -0.0453  0.0524  0.1992  0.7903
 SCF Error: norm([F,P])=      0.064290018174, max([F,P])=      0.021683563602
 orbitals (Q,E):
 ---------------
 S :1...3            ( 2.00    -2.8892)  ( 2.00    -0.2088)  ( 0.00     0.0453)
 P :1...2            ( 6.00    -1.5864)  ( 0.00    -0.0182)
 D :1...2            ( 4.00    -0.1648)  ( 0.00     0.1492)
 F :1...2            (14.00    -1.2344)  ( 0.00     2.2932)

 CYCLE   11
  SDIIS (wt  0.943):  0.0000  0.0000  0.0003 -0.0019 -0.0002  0.0169 -0.0071 -0.0713  1.0633
 A-DIIS (wt  0.057):  0.0000  0.0000  0.0000  0.0000  0.0000  0.0000  0.0000  0.0000  1.0000
  DIIS coefficients:  0.0000  0.0000  0.0003 -0.0018 -0.0002  0.0159 -0.0067 -0.0673  1.0597
 SCF Error: norm([F,P])=      0.019862243149, max([F,P])=      0.006614525832
 orbitals (Q,E):
 ---------------
 S :1...3            ( 2.00    -2.8906)  ( 2.00    -0.2091)  ( 0.00     0.0452)
 P :1...2            ( 6.00    -1.5875)  ( 0.00    -0.0184)
 D :1...2            ( 4.00    -0.1654)  ( 0.00     0.1490)
 F :1...2            (14.00    -1.2376)  ( 0.00     2.2919)

 CYCLE   12
  SDIIS (wt  1.000):  0.0000 -0.0000  0.0001  0.0002 -0.0010 -0.0025  0.0027  1.0005
  DIIS coefficients:  0.0000 -0.0000  0.0001  0.0002 -0.0010 -0.0025  0.0027  1.0005
 SCF Error: norm([F,P])=      0.001704368638, max([F,P])=      0.000557703294
 orbitals (Q,E):
 ---------------
 S :1...3            ( 2.00    -2.8904)  ( 2.00    -0.2090)  ( 0.00     0.0452)
 P :1...2            ( 6.00    -1.5874)  ( 0.00    -0.0184)
 D :1...2            ( 4.00    -0.1653)  ( 0.00     0.1490)
 F :1...2            (14.00    -1.2373)  ( 0.00     2.2920)

 CYCLE   13
  SDIIS (wt  1.000): -0.0000 -0.0000 -0.0000 -0.0001  0.0001 -0.0012  0.0054  0.1443  0.8513
  DIIS coefficients: -0.0000 -0.0000 -0.0000 -0.0001  0.0001 -0.0012  0.0054  0.1443  0.8513
 SCF Error: norm([F,P])=      0.000011644128, max([F,P])=      0.000003087302
 orbitals (Q,E):
 ---------------
 S :1...3            ( 2.00    -2.8904)  ( 2.00    -0.2090)  ( 0.00     0.0452)
 P :1...2            ( 6.00    -1.5874)  ( 0.00    -0.0184)
 D :1...2            ( 4.00    -0.1653)  ( 0.00     0.1490)
 F :1...2            (14.00    -1.2373)  ( 0.00     2.2920)

 CYCLE   14
  SDIIS (wt  1.000): -0.0000 -0.0001 -0.0006 -0.0016  1.0022
  DIIS coefficients: -0.0000 -0.0001 -0.0006 -0.0016  1.0022
 SCF Error: norm([F,P])=      0.000000013756, max([F,P])=      0.000000003650
 orbitals (Q,E):
 ---------------
 S :1...3            ( 2.00    -2.8904)  ( 2.00    -0.2090)  ( 0.00     0.0452)
 P :1...2            ( 6.00    -1.5874)  ( 0.00    -0.0184)
 D :1...2            ( 4.00    -0.1653)  ( 0.00     0.1490)
 F :1...2            (14.00    -1.2373)  ( 0.00     2.2920)

 SCF CONVERGED

 CYCLE   15
1
 ***************************************************************************************************



                                                *******************
                                                *  R E S U L T S  *
                                                *******************
  
 *** Using FIT density in Focky
  SDIIS (wt  1.000): -0.0000 -0.0000 -0.0330  1.0330
  DIIS coefficients: -0.0000 -0.0000 -0.0330  1.0330
 SCF Error: norm([F,P])=      0.000000001904, max([F,P])=      0.000000000603

 Scaled ZORA Orbital Energies, per Irrep and Spin:
 =================================================
                        Occup              E (au)              E (eV)       Diff (eV) with prev. cycle
                        -----      --------------------        ------       --------------------------
 S
               1        2.000     -0.28904146058127E+01       -78.652               1.69E-08
               2        2.000     -0.20903700188629E+00        -5.688               1.07E-08
               3        0.000      0.45235059600390E-01         1.231
               4        0.000      0.56065479131102E+00        15.256
               5        0.000      0.33274541694695E+01        90.545
               6        0.000      0.30455860934223E+04     82874.614
 P
               1        6.000     -0.15873724268739E+01       -43.195               1.66E-08
               2        0.000     -0.18381804002204E-01        -0.500
               3        0.000      0.75931517673518E+00        20.662
               4        0.000      0.46642512103918E+01       126.921
 D
               1        4.000     -0.16528259673378E+00        -4.498               1.44E-08
               2        0.000      0.14901440684398E+00         4.055
               3        0.000      0.12244232958062E+01        33.318
 F
               1       14.000     -0.12372769632872E+01       -33.668               2.06E-08
               2        0.000      0.22920435821192E+01        62.370
               3        0.000      0.17401159156906E+02       473.510


 Partially Occupied:
               1 D                -0.16528259673378E+00
  
 HOMO :        2 S                -0.20903700188629E+00
 LUMO :        2 P                -0.18381804002204E-01
  


 Orbital Energies, all Irreps
 ========================================

 Irrep        no.  (spin)   Occup              E (au)                E (eV)
 ---------------------------------------------------------------------------
 S             1             2.00       -0.28904146058127E+01       -78.6522
 P             1             6.00       -0.15873724268739E+01       -43.1946
 F             1            14.00       -0.12372769632872E+01       -33.6680
 S             2             2.00       -0.20903700188629E+00        -5.6882
 D             1             4.00       -0.16528259673378E+00        -4.4976
 P             2             0.00       -0.18381804002204E-01        -0.5002
 S             3             0.00        0.45235059600390E-01         1.2309
 D             2             0.00        0.14901440684398E+00         4.0549
 S             4             0.00        0.56065479131102E+00        15.2562
 P             3             0.00        0.75931517673518E+00        20.6620
 D             3             0.00        0.12244232958062E+01        33.3183
 F             2             0.00        0.22920435821192E+01        62.3697
 S             5             0.00        0.33274541694695E+01        90.5446
 P             4             0.00        0.46642512103918E+01       126.9207
 F             3             0.00        0.17401159156906E+02       473.5096
 S             6             0.00        0.30455860934223E+04     82874.6143


 Scaled ZORA Orbital Energies of the Core Orbitals:
 ==================================================

 (Note that the atoms are grouped by atomtype, see the labels, and may hence NOT be in input order)

 AtomType  Orbital  Atom                   E (au)                        E (eV)
 --------  -------  ----           --------------------        ----------------
 W           1S        1          -0.25482138824004E+04              -69340.428
             2S        1          -0.43960984780021E+03              -11962.393
             3S        1          -0.10127263228126E+03               -2755.769
             4S        1          -0.20907119428712E+02                -568.912
             2P        1          -0.38417169137868E+03              -10453.844
             3P        1          -0.84864891065853E+02               -2309.291
             4P        1          -0.15541477299623E+02                -422.905
             3D        1          -0.66165082684733E+02               -1800.444
             4D        1          -0.87737511763508E+01                -238.746



 =======================================
 M U L L I K E N   P O P U L A T I O N S
 =======================================
  
 The survey below gives for each atom:
 a) the total charge (Z minus electrons)
 b) the net spin polarization (nr of electrons spin-A minus spin-B)
 c) for each spin the atomic electron valence density (integrated) per L-value.

 Atom              Charge    Spin density          S         P         D         F
 ----              ------    ------------       ------    ------    ------    ------
 1 W              -0.0000                       4.0000    6.0000    4.0000   14.0000

 Populations of individual BAS functions
 ----------------------------------------
 1 W           -0.0024 -0.0016  0.0017  0.0821  0.0004  0.0004  0.0004 -0.0190 -0.0190 -0.0190
                0.1070  0.1070  0.1070  0.0007  0.0011  0.0011  0.0007  0.0011  0.0007  0.0102
                0.0153  0.0153  0.0102  0.0153  0.0102  0.0002  1.3184  0.6637  0.7095  1.0512
                0.1771  0.5899  0.5899  0.5899  1.2256  1.2256  1.2256  0.0879  0.0879  0.0879
                0.2040  0.3059  0.3059  0.2040  0.3059  0.2040  0.2699  0.4048  0.4048  0.2699
                0.4048  0.2699  0.0486  0.0728  0.0728  0.0486  0.0728  0.0486  0.2159  0.4319
                0.4319  0.4319  0.5399  0.4319  0.2159  0.4319  0.4319  0.2159  0.4698  0.9397
                0.9397  0.9397  1.1746  0.9397  0.4698  0.9397  0.9397  0.4698  0.1142  0.2284
                0.2284  0.2284  0.2855  0.2284  0.1142  0.2284  0.2284  0.1142  0.0081  0.0081
                0.0081

 Gross Charges per Atom (Z minus electrons)
 ==========================================
            -0.0000
 Net Total: -0.00000000



 =======================================================================
 Electrostatic potential at the Nuclei due to electrons and other nuclei
 =======================================================================
  
         Atom                  Potential
         ----                  ---------
     1)   W                 545.46052106
 
 
 ========================
 No memory problems found
 ========================
 
 Maximum number of active allocate calls:         487
 
 *******************************************************************************

                             A D F   E X I T
 NORMAL TERMINATION



 =================
 Timing Statistics
 =================
  
 Total Used :                     CPU=        1.20      System=        0.04     Elapsed=        1.29

 Calls  Section                     ( Mean, Percentage )
 ---------------------------------------------------------------------------------------------------
     3  ><      ................      0.00    0.33             0.00    0.00             0.00    0.35
     1  INIT    ................      0.07    5.98             0.00    0.00             0.08    6.00
     1  GEOMET  ................      0.02    1.33             0.00    0.00             0.02    1.82
     1  INPUTA  ................      0.00    0.33             0.00    0.00             0.00    0.29
     1  MAINSY  ................      0.01    1.00             0.00   11.11             0.02    1.62
     1  SYMFIT  ................      0.00    0.33             0.00    0.00             0.00    0.13
     1  CORORT  ................      0.00    0.00             0.00    0.00             0.00    0.15
     1  SYMORB  ................      0.00    0.00             0.00    0.00             0.00    0.08
     1  CLSMAT  ................      0.01    0.66             0.00    0.00             0.01    0.53
     1  ORTHON  ................      0.00    0.00             0.00   11.11             0.01    0.47
     1  GENPT   ................      0.03    2.33             0.00    0.00             0.03    2.05
     1  PTBAS   ................      0.01    0.66             0.00    0.00             0.01    0.57
    15  FOCKY   ................      0.06   76.74             0.00   44.44             0.06   74.81
    15  FOCKTR  ................      0.00    1.66             0.00    0.00             0.00    1.01
    15  SDIIS   ................      0.00    2.66             0.00    0.00             0.00    3.37
     1  COREPS  ................      0.05    3.99             0.01   33.33             0.06    4.74
     1  POPAN   ................      0.00    0.33             0.00    0.00             0.01    0.51
     1  DEBYE   ................      0.00    0.33             0.00    0.00             0.00    0.19
     1  EXIT PROCEDURE .........      0.02    1.33             0.00    0.00             0.02    1.31


 Currently Open Files (EXIT00)
 ====================

 Unit    Access Format  Status   Type       Ident (file)
 -------------------------------------------------------
   3      SEQ    FORM   TRANSP  NORMAL      LOGFILE
                                          ( logfile )

 ***************************************************************************************************
 (LOGFILE)
 <Sep08-2020> <22:19:59>  DIRAC 2019  RunTime: Sep08-2020 22:19:59  Nodes: 1  Procs: 1
 <Sep08-2020> <22:19:59>  NORMAL TERMINATION
 <Sep08-2020> <22:19:59>  END
 <Sep08-2020> <22:19:59>  ADF 2019  RunTime: Sep08-2020 22:19:59  Nodes: 1  Procs: 1
 <Sep08-2020> <22:19:59>  Oxygen (TZP, 1s frozen)
 <Sep08-2020> <22:19:59>  RunType   : CREATE
 <Sep08-2020> <22:19:59>  Net Charge: 0 (Nuclei minus Electrons)
 <Sep08-2020> <22:19:59>  Symmetry  : ATOM
  Coordinates
    Atom         X           Y           Z   (Angstrom)
    1.O         0.000000    0.000000    0.000000
 <Sep08-2020> <22:19:59>  >>>> CORORT
 <Sep08-2020> <22:19:59>  >>>> CLSMAT
 <Sep08-2020> <22:19:59>  >>>> ORTHON
 <Sep08-2020> <22:19:59>  >>>> GENPT
 <Sep08-2020> <22:19:59>  Block Length=  68
 <Sep08-2020> <22:19:59>  >>>> PTBAS
 <Sep08-2020> <22:19:59>  >>>> CYCLE
 <Sep08-2020> <22:19:59>              |Error|         MaxErr       Wt(A-DIIS)
 <Sep08-2020> <22:19:59>      1      0.00000000      0.00000000
 <Sep08-2020> <22:19:59>      2      4.56299337      2.52897111
 <Sep08-2020> <22:19:59>      3      2.72315525      1.79866705    100.0
 <Sep08-2020> <22:19:59>      4      0.28902714      0.13064862    100.0
 <Sep08-2020> <22:19:59>      5      0.41661509      0.23264367    100.0
 <Sep08-2020> <22:19:59>      6      0.01372327      0.00671904      5.8
 <Sep08-2020> <22:19:59>      7      0.00110365      0.00063404      0.0
 <Sep08-2020> <22:19:59>      8      0.00003592      0.00002026      0.0
 <Sep08-2020> <22:19:59>      9      0.00000033      0.00000018      0.0
 <Sep08-2020> <22:20:00>     10      0.00000000      0.00000000      0.0
 <Sep08-2020> <22:20:00>  SCF converged
 <Sep08-2020> <22:20:00>     11      0.00000000      0.00000000      0.0
 <Sep08-2020> <22:20:00>  >>>> POPAN
 <Sep08-2020> <22:20:00>  >>>> DEBYE
 <Sep08-2020> <22:20:00>  NORMAL TERMINATION
 <Sep08-2020> <22:20:00>  END
 <Sep08-2020> <22:20:00>  DIRAC 2019  RunTime: Sep08-2020 22:20:00  Nodes: 1  Procs: 1
 <Sep08-2020> <22:20:00>  NORMAL TERMINATION
 <Sep08-2020> <22:20:00>  END
 <Sep08-2020> <22:20:00>  ADF 2019  RunTime: Sep08-2020 22:20:00  Nodes: 1  Procs: 1
 <Sep08-2020> <22:20:00>  Tungsten (TZP, 4d frozen)
 <Sep08-2020> <22:20:00>  RunType   : CREATE
 <Sep08-2020> <22:20:00>  Net Charge: 0 (Nuclei minus Electrons)
 <Sep08-2020> <22:20:00>  Symmetry  : ATOM
  Coordinates
    Atom         X           Y           Z   (Angstrom)
    1.W         0.000000    0.000000    0.000000
 <Sep08-2020> <22:20:01>  >>>> CORORT
 <Sep08-2020> <22:20:01>  >>>> CLSMAT
 <Sep08-2020> <22:20:01>  >>>> ORTHON
 <Sep08-2020> <22:20:01>  >>>> GENPT
 <Sep08-2020> <22:20:01>  Block Length=  73
 <Sep08-2020> <22:20:01>  >>>> PTBAS
 <Sep08-2020> <22:20:01>  >>>> CYCLE
 <Sep08-2020> <22:20:01>              |Error|         MaxErr       Wt(A-DIIS)
 <Sep08-2020> <22:20:01>      1      0.00000000      0.00000000
 <Sep08-2020> <22:20:01>      2     40.90708283      9.97740212    100.0
 <Sep08-2020> <22:20:01>      3     22.13776681      7.95655062    100.0
 <Sep08-2020> <22:20:01>      4     11.31925821      3.38837877    100.0
 <Sep08-2020> <22:20:01>      5      6.46835280      2.22297464    100.0
 <Sep08-2020> <22:20:01>      6      2.47249642      0.77035507    100.0
 <Sep08-2020> <22:20:01>      7      1.32688857      0.40987742    100.0
 <Sep08-2020> <22:20:01>      8      0.41726555      0.12310398    100.0
 <Sep08-2020> <22:20:01>      9      0.43634466      0.13597797    100.0
 <Sep08-2020> <22:20:01>     10      0.06429002      0.02168356     20.9
 <Sep08-2020> <22:20:01>     11      0.01986224      0.00661453      5.7
 <Sep08-2020> <22:20:01>     12      0.00170437      0.00055770      0.0
 <Sep08-2020> <22:20:01>     13      0.00001164      0.00000309      0.0
 <Sep08-2020> <22:20:02>     14      0.00000001      0.00000000      0.0
 <Sep08-2020> <22:20:02>  SCF converged
 <Sep08-2020> <22:20:02>     15      0.00000000      0.00000000      0.0
 <Sep08-2020> <22:20:02>  >>>> POPAN
 <Sep08-2020> <22:20:02>  >>>> DEBYE
 <Sep08-2020> <22:20:02>  NORMAL TERMINATION
 <Sep08-2020> <22:20:02>  END


 Parallel Execution: Process Information
 ==============================================================================
 Rank   Node Name                              NodeID   MyNodeRank  NodeMaster
 ==============================================================================


May use up to 61376MB of RAM as shared memory on node 0
 
AnalyticalFreq
end

NumericalQuality Good

QTAIM
    Enabled Yes
End

Relativistic Scalar ZORA

SOLVATION
  Surf Delley
  Solv name=Water cav0=0.0 cav1=0.0067639
  Charged method=CONJ
  C-Mat POT
  SCF VAR ALL
  CSMRSP
  Radii
    H=1.30
    O=1.72
    W=1.992
  SubEnd
end

ScanFreq -1000 0

XC
  GGA PBE
end

atoms
      1         W     -2.048691     -1.737943      3.965289
      2         W      2.168928     -1.617610      3.998203
      3         W      0.099476     -3.516435      5.694293
      4         W      0.000000      0.000000      6.243382
      5         W     -2.168928      1.617610      3.998203
      6         W      2.048691      1.737943      3.965289
      7         W     -0.099476      3.516435      5.694293
      8         O     -1.792021     -0.047909      5.581574
      9         O      1.792021      0.047909      5.581574
     10         O      0.049014     -1.676412      4.544841
     11         O      1.821569      0.044763      2.997832
[...]
 <Sep08-2020> <22:40:36>      3      0.15543457      0.01311171    100.0
 <Sep08-2020> <22:40:40>      4      0.25221975      0.02320105    100.0
 <Sep08-2020> <22:40:44>      5      0.51593382      0.04937680    100.0
 <Sep08-2020> <22:40:48>      6      0.17184938      0.02372233     23.0
 <Sep08-2020> <22:40:52>      7      0.12303448      0.01654128     15.7
 <Sep08-2020> <22:40:56>      8      0.04524050      0.00467335      3.7
 <Sep08-2020> <22:41:00>      9      0.01197329      0.00103397      0.0
 <Sep08-2020> <22:41:04>     10      0.00473857      0.00086974      0.0
 <Sep08-2020> <22:41:08>     11      0.00181948      0.00023833      0.0
 <Sep08-2020> <22:41:12>     12      0.00065534      0.00005602      0.0
 <Sep08-2020> <22:41:16>     13      0.00014079      0.00001211      0.0
 <Sep08-2020> <22:41:20>     14      0.00012008      0.00001436      0.0
 <Sep08-2020> <22:41:24>     15      0.00004429      0.00000497      0.0
 <Sep08-2020> <22:41:27>     16      0.00002887      0.00000336      0.0
 <Sep08-2020> <22:41:31>     17      0.00000843      0.00000082      0.0
 <Sep08-2020> <22:41:33>  SCF converged
 <Sep08-2020> <22:41:35>     18      0.00001939      0.00000262      0.0
 <Sep08-2020> <22:41:37>  >>>> TOTEN
 <Sep08-2020> <22:41:43>  >>>> POPAN
 <Sep08-2020> <22:41:43>  >>>> DEBYE
 <Sep08-2020> <22:41:43>  >>>> ENGRAD
 <Sep08-2020> <22:42:01>  current energy                              -10.54065424 Hartree
 <Sep08-2020> <22:42:01>  energy change                      -0.00007860     0.00100000    T
 <Sep08-2020> <22:42:01>  constrained gradient max            0.00282489     0.00100000    F
 <Sep08-2020> <22:42:01>  constrained gradient rms            0.00078962     0.00066667    F
 <Sep08-2020> <22:42:01>  gradient max                        0.00282489
 <Sep08-2020> <22:42:01>  gradient rms                        0.00078962
 <Sep08-2020> <22:42:01>  cart. step max                      0.01241585     0.01000000    F
 <Sep08-2020> <22:42:01>  cart. step rms                      0.00322770     0.00666667    T
  Coordinates in Geometry Cycle 13
    Atom         X           Y           Z   (Angstrom)
    1.W        -2.097340   -1.726568    4.006844
    2.W         2.198370   -1.593439    4.005685
    3.W         0.105934   -3.428580    5.735056
    4.W         0.000000    0.000000    6.144078
    5.W        -2.198370    1.593439    4.005685
    6.W         2.097340    1.726568    4.006844
    7.W        -0.105934    3.428580    5.735056
    8.O        -1.819952   -0.055557    5.546896
    9.O         1.819952    0.055557    5.546896
   10.O         0.048662   -1.594410    4.525963
   11.O         1.900577    0.058820    3.010021
   12.O        -1.766709   -2.966720    5.525566
   13.O        -1.900577   -0.058820    3.010021
   14.O         0.147879   -4.780382    4.611953
   15.O        -3.942303    1.497745    4.258717
   16.O         1.862036    2.805396    2.637132
   17.O        -0.043082    1.401242    7.248882
   18.O         1.766709    2.966720    5.525566
   19.O         3.942303   -1.497745    4.258717
   20.O        -1.862036   -2.805396    2.637132
   21.O        -0.128681    4.211440    7.323388
   22.O        -0.048662    1.594410    4.525963
   23.O        -1.945531    2.850718    5.526942
   24.O        -0.147879    4.780382    4.611953
   25.O        -3.843605   -1.735841    4.261893
   26.O         2.026620   -2.686454    2.637829
   27.O         0.043082   -1.401242    7.248882
   28.O         1.945531   -2.850718    5.526942
   29.O         3.843605    1.735841    4.261893
   30.O        -2.026620    2.686454    2.637829
   31.O         0.128681   -4.211440    7.323388
 <Sep08-2020> <22:42:01>  >>>> CORORT
 <Sep08-2020> <22:42:02>  >>>> CLSMAT
 <Sep08-2020> <22:42:02>  >>>> ORTHON
 <Sep08-2020> <22:42:02>  >>>> GENPT
 <Sep08-2020> <22:42:02>  Block Length= 128
 <Sep08-2020> <22:42:02>  >>>> PTBAS
 <Sep08-2020> <22:42:07>  combining surface points...
 <Sep08-2020> <22:42:07>  combining surface points...
 <Sep08-2020> <22:42:07>  >>>> CYCLE
 <Sep08-2020> <22:42:14>              |Error|         MaxErr       Wt(A-DIIS)
 <Sep08-2020> <22:42:14>      1      0.42309030      0.10714367
 <Sep08-2020> <22:42:18>      2      0.46511008      0.03815594    100.0
 <Sep08-2020> <22:42:22>      3      0.15557755      0.01282365    100.0
 <Sep08-2020> <22:42:26>      4      0.28154137      0.02594436    100.0
 <Sep08-2020> <22:42:30>      5      0.40151962      0.03636853    100.0
 <Sep08-2020> <22:42:34>      6      0.18758721      0.02515625    100.0
 <Sep08-2020> <22:42:38>      7      0.29420623      0.03755959    100.0
 <Sep08-2020> <22:42:42>      8      0.18907679      0.01689171    100.0
 <Sep08-2020> <22:42:46>      9      0.09909133      0.01283441     12.0
 <Sep08-2020> <22:42:50>     10      0.00910394      0.00118487      0.2
 <Sep08-2020> <22:42:54>     11      0.00238619      0.00035636      0.0
 <Sep08-2020> <22:42:58>     12      0.00081175      0.00006783      0.0
 <Sep08-2020> <22:43:02>     13      0.00037587      0.00004270      0.0
 <Sep08-2020> <22:43:06>     14      0.00024213      0.00002701      0.0
 <Sep08-2020> <22:43:10>     15      0.00008117      0.00000837      0.0
 <Sep08-2020> <22:43:14>     16      0.00011870      0.00001347      0.0
 <Sep08-2020> <22:43:18>     17      0.00000919      0.00000089      0.0
 <Sep08-2020> <22:43:19>  SCF converged
 <Sep08-2020> <22:43:21>     18      0.00001177      0.00000124      0.0
 <Sep08-2020> <22:43:23>  >>>> TOTEN
 <Sep08-2020> <22:43:29>  >>>> POPAN
 <Sep08-2020> <22:43:29>  >>>> DEBYE
 <Sep08-2020> <22:43:29>  >>>> ENGRAD
 <Sep08-2020> <22:43:47>  current energy                              -10.54046637 Hartree
 <Sep08-2020> <22:43:47>  energy change                       0.00018787     0.00100000    T
 <Sep08-2020> <22:43:47>  constrained gradient max            0.00193805     0.00100000    F
 <Sep08-2020> <22:43:47>  constrained gradient rms            0.00058710     0.00066667    T
 <Sep08-2020> <22:43:47>  gradient max                        0.00193805
 <Sep08-2020> <22:43:47>  gradient rms                        0.00058710
 <Sep08-2020> <22:43:47>  cart. step max                      0.00612157     0.01000000    T
 <Sep08-2020> <22:43:47>  cart. step rms                      0.00177565     0.00666667    T
  Coordinates in Geometry Cycle 14
    Atom         X           Y           Z   (Angstrom)
    1.W        -2.096424   -1.727416    4.006061
    2.W         2.198162   -1.594720    4.005967
    3.W         0.105498   -3.427033    5.738217
    4.W         0.000000    0.000000    6.142753
    5.W        -2.198162    1.594720    4.005967
    6.W         2.096424    1.727416    4.006061
    7.W        -0.105498    3.427033    5.738217
    8.O        -1.819782   -0.056186    5.546410
    9.O         1.819782    0.056186    5.546410
   10.O         0.048828   -1.593436    4.523356
   11.O         1.900408    0.058375    3.009320
   12.O        -1.766714   -2.966470    5.526472
   13.O        -1.900408   -0.058375    3.009320
   14.O         0.146471   -4.781126    4.618075
   15.O        -3.942287    1.498176    4.257192
   16.O         1.861176    2.806379    2.636772
   17.O        -0.043472    1.403832    7.244216
   18.O         1.766714    2.966470    5.526472
   19.O         3.942287   -1.498176    4.257192
   20.O        -1.861176   -2.806379    2.636772
   21.O        -0.127772    4.208407    7.327219
   22.O        -0.048828    1.593436    4.523356
   23.O        -1.945531    2.851104    5.528006
   24.O        -0.146471    4.781126    4.618075
   25.O        -3.843155   -1.737137    4.258255
   26.O         2.028618   -2.687498    2.637893
   27.O         0.043472   -1.403832    7.244216
   28.O         1.945531   -2.851104    5.528006
   29.O         3.843155    1.737137    4.258255
   30.O        -2.028618    2.687498    2.637893
   31.O         0.127772   -4.208407    7.327219
 <Sep08-2020> <22:43:47>  >>>> CORORT
 <Sep08-2020> <22:43:47>  >>>> CLSMAT
 <Sep08-2020> <22:43:47>  >>>> ORTHON
 <Sep08-2020> <22:43:48>  >>>> GENPT
 <Sep08-2020> <22:43:48>  Block Length= 128
 <Sep08-2020> <22:43:48>  >>>> PTBAS
 <Sep08-2020> <22:43:53>  combining surface points...
 <Sep08-2020> <22:43:53>  combining surface points...
 <Sep08-2020> <22:43:53>  >>>> CYCLE
 <Sep08-2020> <22:43:59>              |Error|         MaxErr       Wt(A-DIIS)
 <Sep08-2020> <22:43:59>      1      0.30556690      0.06789176
 <Sep08-2020> <22:44:03>      2      0.46505259      0.03812087    100.0
 <Sep08-2020> <22:44:08>      3      0.15625512      0.01303396    100.0
 <Sep08-2020> <22:44:12>      4      0.29506644      0.02719790    100.0
 <Sep08-2020> <22:44:16>      5      0.36287145      0.03359778    100.0
 <Sep08-2020> <22:44:20>      6      0.20059317      0.02584691    100.0
 <Sep08-2020> <22:44:24>      7      0.24334814      0.03204722    100.0
 <Sep08-2020> <22:44:28>      8      0.11537963      0.00918051      8.3
 <Sep08-2020> <22:44:32>      9      0.01944581      0.00174393      0.8
 <Sep08-2020> <22:44:36>     10      0.00446889      0.00075474      0.0
 <Sep08-2020> <22:44:40>     11      0.00235092      0.00036077      0.0
 <Sep08-2020> <22:44:44>     12      0.00081562      0.00007402      0.0
 <Sep08-2020> <22:44:48>     13      0.00036896      0.00005022      0.0
 <Sep08-2020> <22:44:52>     14      0.00019889      0.00001991      0.0
 <Sep08-2020> <22:44:56>     15      0.00010183      0.00001006      0.0
 <Sep08-2020> <22:44:59>     16      0.00002049      0.00000158      0.0
 <Sep08-2020> <22:45:03>     17      0.00004304      0.00000378      0.0
 <Sep08-2020> <22:45:07>     18      0.00000626      0.00000054      0.0
 <Sep08-2020> <22:45:09>  SCF converged
 <Sep08-2020> <22:45:11>     19      0.00000479      0.00000043      0.0
 <Sep08-2020> <22:45:13>  >>>> TOTEN
 <Sep08-2020> <22:45:18>  >>>> POPAN
 <Sep08-2020> <22:45:18>  >>>> DEBYE
 <Sep08-2020> <22:45:18>  >>>> ENGRAD
 <Sep08-2020> <22:45:37>  current energy                              -10.54028928 Hartree
 <Sep08-2020> <22:45:37>  energy change                       0.00017709     0.00100000    T
 <Sep08-2020> <22:45:37>  constrained gradient max            0.00109729     0.00100000    F
 <Sep08-2020> <22:45:37>  constrained gradient rms            0.00033929     0.00066667    T
 <Sep08-2020> <22:45:37>  gradient max                        0.00109729
 <Sep08-2020> <22:45:37>  gradient rms                        0.00033929
 <Sep08-2020> <22:45:37>  cart. step max                      0.00244922     0.01000000    T
 <Sep08-2020> <22:45:37>  cart. step rms                      0.00076135     0.00666667    T
  Coordinates in Geometry Cycle 15
    Atom         X           Y           Z   (Angstrom)
    1.W        -2.095667   -1.727921    4.005615
    2.W         2.197851   -1.595679    4.006242
    3.W         0.105194   -3.426827    5.739411
    4.W         0.000000    0.000000    6.142056
    5.W        -2.197851    1.595679    4.006242
    6.W         2.095667    1.727921    4.005615
    7.W        -0.105194    3.426827    5.739411
    8.O        -1.819556   -0.056407    5.546131
    9.O         1.819556    0.056407    5.546131
   10.O         0.048921   -1.593193    4.522344
   11.O         1.900513    0.058056    3.009599
   12.O        -1.766565   -2.966262    5.527082
   13.O        -1.900513   -0.058056    3.009599
   14.O         0.146354   -4.780683    4.618984
   15.O        -3.942097    1.498412    4.257281
   16.O         1.860141    2.807446    2.636918
   17.O        -0.043670    1.405443    7.241767
   18.O         1.766565    2.966262    5.527082
   19.O         3.942097   -1.498412    4.257281
   20.O        -1.860141   -2.807446    2.636918
   21.O        -0.127340    4.208735    7.328381
   22.O        -0.048921    1.593193    4.522344
   23.O        -1.945142    2.851457    5.528727
   24.O        -0.146354    4.780683    4.618984
   25.O        -3.842687   -1.737659    4.256661
   26.O         2.029338   -2.689107    2.638635
   27.O         0.043670   -1.405443    7.241767
   28.O         1.945142   -2.851457    5.528727
   29.O         3.842687    1.737659    4.256661
   30.O        -2.029338    2.689107    2.638635
   31.O         0.127340   -4.208735    7.328381
 <Sep08-2020> <22:45:37>  >>>> CORORT
 <Sep08-2020> <22:45:37>  >>>> CLSMAT
 <Sep08-2020> <22:45:37>  >>>> ORTHON
 <Sep08-2020> <22:45:37>  >>>> GENPT
 <Sep08-2020> <22:45:37>  Block Length= 128
 <Sep08-2020> <22:45:37>  >>>> PTBAS
 <Sep08-2020> <22:45:42>  combining surface points...
 <Sep08-2020> <22:45:42>  combining surface points...
 <Sep08-2020> <22:45:42>  >>>> CYCLE
 <Sep08-2020> <22:45:49>              |Error|         MaxErr       Wt(A-DIIS)
 <Sep08-2020> <22:45:49>      1      0.18640244      0.03175544
 <Sep08-2020> <22:45:53>      2      0.46510444      0.03806745    100.0
 <Sep08-2020> <22:45:57>      3      0.15684942      0.01312039    100.0
 <Sep08-2020> <22:46:01>      4      0.29847779      0.02749314    100.0
 <Sep08-2020> <22:46:05>      5      0.35788875      0.03304000    100.0
 <Sep08-2020> <22:46:09>      6      0.20114885      0.02558659    100.0
 <Sep08-2020> <22:46:13>      7      0.23744032      0.03121844    100.0
 <Sep08-2020> <22:46:18>      8      0.10839983      0.00876127      7.8
 <Sep08-2020> <22:46:22>      9      0.01940502      0.00173124      0.7
 <Sep08-2020> <22:46:26>     10      0.00447629      0.00075849      0.0
 <Sep08-2020> <22:46:29>     11      0.00232408      0.00035802      0.0
 <Sep08-2020> <22:46:33>     12      0.00082170      0.00007600      0.0
 <Sep08-2020> <22:46:37>     13      0.00035930      0.00004870      0.0
 <Sep08-2020> <22:46:41>     14      0.00019291      0.00001905      0.0
 <Sep08-2020> <22:46:45>     15      0.00009858      0.00000987      0.0
 <Sep08-2020> <22:46:49>     16      0.00001975      0.00000149      0.0
 <Sep08-2020> <22:46:53>     17      0.00004551      0.00000391      0.0
 <Sep08-2020> <22:46:57>     18      0.00000603      0.00000052      0.0
 <Sep08-2020> <22:46:58>  SCF converged
 <Sep08-2020> <22:47:00>     19      0.00000397      0.00000038      0.0
 <Sep08-2020> <22:47:02>  >>>> TOTEN
 <Sep08-2020> <22:47:08>  >>>> POPAN
 <Sep08-2020> <22:47:08>  >>>> DEBYE
 <Sep08-2020> <22:47:08>  >>>> ENGRAD
 <Sep08-2020> <22:47:26>  current energy                              -10.54030015 Hartree
 <Sep08-2020> <22:47:26>  energy change                      -0.00001086     0.00100000    T
 <Sep08-2020> <22:47:26>  constrained gradient max            0.00075777     0.00100000    T
 <Sep08-2020> <22:47:26>  constrained gradient rms            0.00023900     0.00066667    T
 <Sep08-2020> <22:47:26>  gradient max                        0.00075777
 <Sep08-2020> <22:47:26>  gradient rms                        0.00023900
 <Sep08-2020> <22:47:26>  cart. step max                      0.00262967     0.01000000    T
 <Sep08-2020> <22:47:26>  cart. step rms                      0.00084523     0.00666667    T
 <Sep08-2020> <22:47:26>  GEOMETRY CONVERGED
 <Sep08-2020> <22:47:26>  Calculating Energy Terms for Final Geometry
  Coordinates in Geometry Cycle 15
    Atom         X           Y           Z   (Angstrom)
    1.W        -2.095667   -1.727921    4.005615
    2.W         2.197851   -1.595679    4.006242
    3.W         0.105194   -3.426827    5.739411
    4.W         0.000000    0.000000    6.142056
    5.W        -2.197851    1.595679    4.006242
    6.W         2.095667    1.727921    4.005615
    7.W        -0.105194    3.426827    5.739411
    8.O        -1.819556   -0.056407    5.546131
    9.O         1.819556    0.056407    5.546131
   10.O         0.048921   -1.593193    4.522344
   11.O         1.900513    0.058056    3.009599
   12.O        -1.766565   -2.966262    5.527082
   13.O        -1.900513   -0.058056    3.009599
   14.O         0.146354   -4.780683    4.618984
   15.O        -3.942097    1.498412    4.257281
   16.O         1.860141    2.807446    2.636918
   17.O        -0.043670    1.405443    7.241767
   18.O         1.766565    2.966262    5.527082
   19.O         3.942097   -1.498412    4.257281
   20.O        -1.860141   -2.807446    2.636918
   21.O        -0.127340    4.208735    7.328381
   22.O        -0.048921    1.593193    4.522344
   23.O        -1.945142    2.851457    5.528727
   24.O        -0.146354    4.780683    4.618984
   25.O        -3.842687   -1.737659    4.256661
   26.O         2.029338   -2.689107    2.638635
   27.O         0.043670   -1.405443    7.241767
   28.O         1.945142   -2.851457    5.528727
   29.O         3.842687    1.737659    4.256661
   30.O        -2.029338    2.689107    2.638635
   31.O         0.127340   -4.208735    7.328381
 <Sep08-2020> <22:47:26>  >>>> CORORT
 <Sep08-2020> <22:47:26>  >>>> CLSMAT
 <Sep08-2020> <22:47:26>  >>>> ORTHON
 <Sep08-2020> <22:47:27>  >>>> GENPT
 <Sep08-2020> <22:47:27>  Block Length= 128
 <Sep08-2020> <22:47:27>  >>>> PTBAS
 <Sep08-2020> <22:47:32>  combining surface points...
 <Sep08-2020> <22:47:32>  combining surface points...
 <Sep08-2020> <22:47:32>  >>>> CYCLE
 <Sep08-2020> <22:47:38>              |Error|         MaxErr       Wt(A-DIIS)
 <Sep08-2020> <22:47:38>      1      0.14084280      0.01248514
 <Sep08-2020> <22:47:43>      2      0.46414852      0.05100972    100.0
 <Sep08-2020> <22:47:47>      3      0.15813972      0.01521649    100.0
 <Sep08-2020> <22:47:51>      4      0.31181671      0.03735153    100.0
 <Sep08-2020> <22:47:55>      5      0.32439810      0.03994084    100.0
 <Sep08-2020> <22:47:59>      6      0.21459988      0.03430314    100.0
 <Sep08-2020> <22:48:03>      7      0.20469916      0.03670542    100.0
 <Sep08-2020> <22:48:07>      8      0.09211192      0.01199073     11.1
 <Sep08-2020> <22:48:11>      9      0.02097017      0.00257048      1.6
 <Sep08-2020> <22:48:15>     10      0.00484276      0.00077355      0.0
 <Sep08-2020> <22:48:19>     11      0.00227412      0.00034066      0.0
 <Sep08-2020> <22:48:23>     12      0.00084046      0.00008247      0.0
 <Sep08-2020> <22:48:27>     13      0.00033210      0.00006705      0.0
 <Sep08-2020> <22:48:31>     14      0.00014521      0.00001738      0.0
 <Sep08-2020> <22:48:34>     15      0.00006886      0.00000724      0.0
 <Sep08-2020> <22:48:38>     16      0.00006129      0.00000628      0.0
 <Sep08-2020> <22:48:42>     17      0.00002133      0.00000217      0.0
 <Sep08-2020> <22:48:46>     18      0.00000442      0.00000042      0.0
 <Sep08-2020> <22:48:48>  SCF converged
 <Sep08-2020> <22:48:50>     19      0.00000433      0.00000065      0.0
 <Sep08-2020> <22:48:53>  >>>> TOTEN
 <Sep08-2020> <22:49:10>  QTAIM: determining topology...
 <Sep08-2020> <22:49:24>  >>>> POPAN
 <Sep08-2020> <22:49:24>  >>>> DEBYE
 <Sep08-2020> <22:49:24>  >>>> AMETS
 <Sep08-2020> <22:49:24>  >>>> POPUL
 <Sep08-2020> <22:49:24>   Bond Energy         -10.54030015 a.u.
 <Sep08-2020> <22:49:24>   Bond Energy        -286.81616028 eV
 <Sep08-2020> <22:49:24>   Bond Energy       -6614.14       kcal/mol
 <Sep08-2020> <22:49:24>  >>>> ENHESS
 <Sep08-2020> <22:49:55>  === NUCLEUS:     1
 <Sep08-2020> <22:55:22>  === NUCLEUS:     2
 <Sep08-2020> <23:00:35>  === NUCLEUS:     3
 <Sep08-2020> <23:05:54>  === NUCLEUS:     4
 <Sep08-2020> <23:10:53>  === NUCLEUS:     8
 <Sep08-2020> <23:15:53>  === NUCLEUS:    10
 <Sep08-2020> <23:20:39>  === NUCLEUS:    11
 <Sep08-2020> <23:25:19>  === NUCLEUS:    12
 <Sep08-2020> <23:30:05>  === NUCLEUS:    14
 <Sep08-2020> <23:34:57>  === NUCLEUS:    15
 <Sep08-2020> <23:39:44>  === NUCLEUS:    16
 <Sep08-2020> <23:44:30>  === NUCLEUS:    17
 <Sep08-2020> <23:49:17>  === NUCLEUS:    21
 <Sep08-2020> <23:54:03>  === NUCLEUS:    23
 <Sep08-2020> <23:58:50>  === NUCLEUS:    25
 <Sep09-2020> <00:03:37>  === NUCLEUS:    26
 <Sep09-2020> <00:08:23>  >>>> CALC_HESS_PMAT
 <Sep09-2020> <00:09:24>  >>>> CALC_HESS_WMAT
 <Sep09-2020> <00:09:38>  NORMAL TERMINATION
 <Sep09-2020> <00:09:38>  END
