
 *******************************************************************************
 *                                                                             *
 *  -------------------------------------                                      *
 *   Amsterdam Density Functional  (ADF)         2019                          *
 *  -------------------------------------                                      *
 *                                               r79301 2019-11-09             *
 *                                                                             *
 *                                                                             *
 *                            =====================                            *
 *                            |                   |                            *
 *                            |     D I R A C     |                            *
 *                            |                   |                            *
 *                            =====================                            *
 *                                                                             *
 *                                                                             *
 *   Online information and documentation:  https://www.scm.com/support/       *
 *   E-mail:  support@scm.com   info@scm.com                                   *
 *                                                                             *
 *   Scientific publications using ADF results must be properly referenced     *
 *   See the User Manuals (or the web site) for recommended citations          *
 *   The terms and conditions of the End User License Agreement apply to       *
 *   the use of ADF, https://www.scm.com/license-terms/                        *
 *                                                                             *
 **********************  x86_64_linux_intel / intelmpi  ************************
 
 
 
  
 DIRAC 2019  RunTime: Oct09-2020 19:36:39  Nodes: 1  Procs: 1

 Temporary files are created in /scratch/kid_0.1807222760 (0x58465342)

1
 HYDROGEN ATOM RELATIVISTIC, Point Nuc, A and c from libtc   
 N J RN H ZN XION ANUC CLIGHT
 5000    1100.00000000197.36710137  1.00000000  0.00000000    1.007825  0.1370360E+03
  PH   PHI     EPS        DEL        DELRVR
  0.30  0.30     2500.00  0.00001000  0.00001000
 IDIRC  NC1  NDEBU NPRIN  IPUN IRCOR IWCOR
   1   300     0     0     0     0     0
   XALPHA      XLATTER      RNUC
  0.70000000  0.00000000  0.00000000 Point Charge
   XN   XL   XJ      XE          XZ      XDELL
  1.0  0.0  0.5      -1.000       1.000     0.00000
 ICORP=  0  NPCL=  0  DEMP=0.00  PEPS=0.000000
 R(1)=  0.1000000E-08 D=  0.1005080E+01 RNUC=  0.0000000E+00
 converged at cycle   32  DENSITY AVERAGING    0.2400
  MAXIMUM ERROR IN R.V(R) IS   0.79874357E-05
 Q,EY,EV,EZ,ESUM,ETOT,RHO  0.100000E+01 -0.266614E+00 -0.619969E+00 -0.910779E+00 -0.203940E+00 -0.415998E+00  0.337036E-17


 DIRAC CALCULATION
1                    HYDROGEN ATOM RELATIVISTIC, Point Nuc, A and c from libtc


 EXCHANGE COEFFICIENT=  0.7000000           TAIL CORRECTION=  0.           NUCLEAR RADIUS=  0.000E+00
0                       ORBITAL    N    L    J     ELECTRONS     EIGENVALUE                DELTA OF EIGENV.

                          1S1/2  1.0  0.0  0.5     1.000       -0.2039397E+00                 0.2720093E-06


                                        NUCLEAR CHARGE=    1.000000
                            INTEGRAL OF CHARGE DENSITY=    1.000000
                           SUM OF THE ORBITAL ENERGIES=     -0.2039
                                          TOTAL ENERGY=     -0.4160
                                        KINETIC ENERGY=      0.4160
                             NUCLEAR ATTRACTION ENERGY=     -0.9108
                             ELECTRON REPULSION ENERGY=      0.2787
                                       EXCHANGE ENERGY=     -0.2000

 *******************************************************************************

                             D I R A C   E X I T
 NORMAL TERMINATION



 =================
 Timing Statistics
 =================
  
 Total Used :                     CPU=        0.06      System=        0.00     Elapsed=        0.07

 Calls  Section                     ( Mean, Percentage )
 ---------------------------------------------------------------------------------------------------
     2  ><      ................      0.00    0.00             0.00    0.00             0.00    0.01
     1  EXIT PROCEDURE .........      0.06  100.00             0.00    0.00             0.07   99.99


 Currently Open Files (EXIT00)
 ====================

 Unit    Access Format  Status   Type       Ident (file)
 -------------------------------------------------------
   3      SEQ    FORM   TRANSP  NORMAL      LOGFILE
                                          ( logfile )
 
Create H   file=TZP-H
XC
  GGA PBE
End
relativistic ZORA
Corepotentials t12.rel
End

 *******************************************************************************
 *                                                                             *
 *  -------------------------------------                                      *
 *   Amsterdam Density Functional  (ADF)         2019                          *
 *  -------------------------------------                                      *
 *                                               r79301 2019-11-09             *
 *                                                                             *
 *                                                                             *
 *                              =================                              *
 *                              |               |                              *
 *                              |     A D F     |                              *
 *                              |               |                              *
 *                              =================                              *
 *                                                                             *
 *                                                                             *
 *   Online information and documentation:  https://www.scm.com/support/       *
 *   E-mail:  support@scm.com   info@scm.com                                   *
 *                                                                             *
 *   Scientific publications using ADF results must be properly referenced     *
 *   See the User Manuals (or the web site) for recommended citations          *
 *   The terms and conditions of the End User License Agreement apply to       *
 *   the use of ADF, https://www.scm.com/license-terms/                        *
 *                                                                             *
 **********************  x86_64_linux_intel / intelmpi  ************************
 
 
 
  
 ADF 2019  RunTime: Oct09-2020 19:36:39  Nodes: 1  Procs: 1

 Temporary files are created in /scratch/kid_0.18760866 (0x58465342)

 Hydrogen (TZP)



 ===========================
 A T T A C H E D   F I L E S
 ===========================
  
 CREATE - Data File:    TZP-H
                        Hydrogen (TZP)
 Core Potentials:
         file : t12.rel



 ===============================
 M O D E L   P A R A M E T E R S
 ===============================
  
 DENSITY FUNCTIONAL POTENTIAL (scf)
    LDA:                               PW92                                    == Not Default ==
    Gradient Corrections:              PBEc PBEx                               == Not Default ==

 SPIN  (restricted / unrestr.)
    Molecule:                          Restricted                               

 OTHER ASPECTS
    Relativistic Corrections:          scalar (ZORA,MAPA)                      == Not Default ==

    Nuclear Charge Density Model:      Point Charge Nuclei                      
    Core Treatment:                    Frozen Orbital(s)                        

    Hyperfine or Zeeman Interaction:   ---                                      



 =====================================
 S Y M M E T R Y ,   E L E C T R O N S
 =====================================
  
 Symmetry: ATOM

 Irreducible Representations, including subspecies
 -------------------------------------------------
 S
 P:x  P:y  P:z
 D:z2  D:x2-y2  D:xy  D:xz  D:yz
 F:z3  F:z  F:xyz  F:z2x  F:z2y  F:x  F:y


 Configuration of Valence Electrons
 ==================================

          Occupation Numbers
          -------------------------------------------------
 S        1
 P        0
 D        0
 F        0
          -------------------------------------------------

 Total:   1

 Net Charge: 0 (Nuclei minus Electrons)

 Preset values for MO occupations will be applied through SCF cycle no. 1000000
 Thereafter, the program will assign electrons to MOs that are spatially
 similar to the occupied MOs in a "reference" cycle ("KeepOrbitals").
 The reference cycle is always the PREVIOUS cycle: it will evolve with
 the SCF procedure.



 ================================
 (Slater-type)  F U N C T I O N S  ***  (Basis and Fit)  ***
 ================================
  

 Atom Type    1  (H)
 ==============

 Valence Basis Sets:   4
 -----------------------
   1 S    0.690000
   1 S    0.920000
   1 S    1.580000
   2 P    1.250000


 BAS: List of all Elementary Cartesian Basis Functions
 =====================================================

 The numbering in the list below (to the right of the function characteristics) is referred
 to in print-outs of MO eigenvectors and Mulliken populations in the BAS representation
 (as contrasted to the SFO representation).

 Notes:
 1. The functions are characterized by a polynomial prefactor (powers of x,y,z and r) and
    an exponential decay factor alpha.
 2. Since the basis sets are specific for an atom TYPE, the individual functions occur on
    all atoms of that type.
 3. The word 'Core' in the left margin signals that it is a Core Function (CF) : not a
    degree of freedom in the valence set, but only used to ensure orthogonalization of
    the other valence basis functions on the frozen Core Orbitals.


 (power of) X  Y  Z  R     Alpha  on Atom
            ==========     =====     ==========

 H                                    1
                                  ---------------------------------------------------------------------------
            0  0  0  0     0.690      1
            0  0  0  0     0.920      2
            0  0  0  0     1.580      3
            1  0  0  0     1.250      4
            0  1  0  0     1.250      5
            0  0  1  0     1.250      6

 Total number of charge fitting functions (nprimf)        50
 Total number of Cartesian basis functions (naos)          6
 Total number of Cartesian core functions  (ncos)          0



 BAS: List of all Elementary Cartesian Basis Functions
 =====================================================

 The numbering in the list below (to the right of the function characteristics) is referred
 to in print-outs of MO eigenvectors and Mulliken populations in the BAS representation
 (as contrasted to the SFO representation).

 Notes:
 1. The functions are characterized by a polynomial prefactor (powers of x,y,z and r) and
    an exponential decay factor alpha.
 2. Since the basis sets are specific for an atom TYPE, the individual functions occur on
    all atoms of that type.
 3. The word 'Core' in the left margin signals that it is a Core Function (CF) : not a
    degree of freedom in the valence set, but only used to ensure orthogonalization of
    the other valence basis functions on the frozen Core Orbitals.


 (power of) X  Y  Z  R     Alpha  on Atom
            ==========     =====     ==========

 H                                    1
                                  ---------------------------------------------------------------------------
            0  0  0  0     0.690      1
            0  0  0  0     0.920      2
            0  0  0  0     1.580      3
            1  0  0  0     1.250      4
            0  1  0  0     1.250      5
            0  0  1  0     1.250      6
1
 ***************************************************************************************************



                                              ***********************
                                              *  T E C H N I C A L  *
                                              ***********************
  



 =============================================================
 P A R A L L E L I Z A T I O N  and  V E C T O R I Z A T I O N
 =============================================================
  
 Nr of parallel processes:                                1
 Maximum vector length in NumInt loops:                 128



 =====================
 S C F   U P D A T E S
 =====================
  
 Max. nr. of cycles:                               300
 Convergence criterion:                              0.0000000100
   secondary criterion:                              0.0000000100

 Mix parameter (when DIIS does not apply):           0.2000000000
 Special mix parameter for the first cycle:          1.0000000000
 Mixed ADIIS+SDIIS will be used                  
    Max number of expansion vectors:                10
    Pure ADIIS when Max([F,P]) is above              0.1000000000
    Pure SDIIS when Max([F,P]) is below              0.0010000000
 Automatic ElectronSmearing (in case of problematic SCF convergence) disabled



 =================
 P R E C I S I O N  ***  (General: NumInt, NeglectFunctionTails, ...)  ***
 =================
  

 NumInt:           Target precision:                12.0000000000
 -------           Initial precision:               10.0000000000
                   Min. precision (optimization):   10.0000000000

 Neglect Functions:          Basis functions:        0.1000000000E-13
 ------------------          Fit functions:          0.1000000000E-13



 ===========================
 L I N E A R   S C A L I N G
 ===========================
  

 Cut-off radii density fit:                        0.1000000000E-97
 Overlap cut-off criterion AO matrix elements:     0.1000000000E-97
 Cut-offs for Coulomb potential and fitted density:0.1000000000E-97
 Cut-off criterion for Coulomb multipole terms:    0.1000000000E-97
 Progressive Convergence parameter:                 0.000000000    
1
 ***************************************************************************************************



                                            ***************************
                                            *  C O M P U T A T I O N  *
                                            ***************************
  

 Number of elements of the density matrix on this node (used, total):        21        21



 ===========================================
 Numerical Integration : Fuzzy Cells (Becke)
 ===========================================
  
 Becke grid quality: VERYGOOD       
  
 Lebedev angular grid order:             min:  13 max:  41
 Nr. of radial points:                   min:  64 max:  64

 Total nr. of points:         64
 Nr. of blocks:                1
 Block length:                64
 Nr. of dummy points:          0


 Test of Precision of the Numerical Integration Grid
 ===================================================

 Integral of the Total Core Density:                   0.00000000000000



 ========================
 Density Fitting (zlmFit)
 ========================
  
 ZlmFit Fit Quality: VERYGOOD       
  
 Max L-expansion:                        min:   0 max:   0
 Nr. of radial interpolation points:     min: 120 max: 120



 =====
 S C F  ***  ScaSCF  ***
 =====
  

 CYCLE    1
 SCF Error: norm([F,P])=      0.000000000000, max([F,P])=      0.000000000000
 orbitals (Q,E):
 ---------------
 S :1...3            ( 1.00    -0.5000)  ( 0.00    -0.0900)  ( 0.00     1.2936)
 P :1...1            ( 0.00     0.1562)

 CYCLE    2
 SCF Error: norm([F,P])=      0.031537872292, max([F,P])=      0.030110494752
 orbitals (Q,E):
 ---------------
 S :1...2            ( 1.00    -0.2218)  ( 0.00     0.1019)
 P :1...1            ( 0.00     0.4189)

 CYCLE    3
  SDIIS (wt  0.000):  0.1996  0.8004
 A-DIIS (wt  1.000):  0.0000  1.0000
  DIIS coefficients:  0.0000  1.0000
 SCF Error: norm([F,P])=      0.008617989401, max([F,P])=      0.008343029399
 orbitals (Q,E):
 ---------------
 S :1...2            ( 1.00    -0.2422)  ( 0.00     0.0889)
 P :1...1            ( 0.00     0.4024)

 CYCLE    4
  SDIIS (wt  0.993):  0.1666  0.8334
 A-DIIS (wt  0.007):  0.0000  1.0000
  DIIS coefficients:  0.1654  0.8346
 SCF Error: norm([F,P])=      0.001732350026, max([F,P])=      0.001718616814
 orbitals (Q,E):
 ---------------
 S :1...2            ( 1.00    -0.2385)  ( 0.00     0.0908)
 P :1...1            ( 0.00     0.4054)

 CYCLE    5
  SDIIS (wt  1.000):  0.0236  0.9764
  DIIS coefficients:  0.0236  0.9764
 SCF Error: norm([F,P])=      0.000043673449, max([F,P])=      0.000039769875
 orbitals (Q,E):
 ---------------
 S :1...2            ( 1.00    -0.2386)  ( 0.00     0.0908)
 P :1...1            ( 0.00     0.4054)

 CYCLE    6
  SDIIS (wt  1.000): -0.0577  1.0577
  DIIS coefficients: -0.0577  1.0577
 SCF Error: norm([F,P])=      0.000002383805, max([F,P])=      0.000002158128
 orbitals (Q,E):
 ---------------
 S :1...2            ( 1.00    -0.2386)  ( 0.00     0.0908)
 P :1...1            ( 0.00     0.4054)

 CYCLE    7
  SDIIS (wt  1.000): -0.0032  1.0032
  DIIS coefficients: -0.0032  1.0032
 SCF Error: norm([F,P])=      0.000000007721, max([F,P])=      0.000000007228
 orbitals (Q,E):
 ---------------
 S :1...2            ( 1.00    -0.2386)  ( 0.00     0.0908)
 P :1...1            ( 0.00     0.4054)

 SCF CONVERGED

 CYCLE    8
1
 ***************************************************************************************************



                                                *******************
                                                *  R E S U L T S  *
                                                *******************
  
 *** Using FIT density in Focky
  SDIIS (wt  1.000):  0.0192  0.9808
  DIIS coefficients:  0.0192  0.9808
 SCF Error: norm([F,P])=      0.000000000151, max([F,P])=      0.000000000141

 Scaled ZORA Orbital Energies, per Irrep and Spin:
 =================================================
                        Occup              E (au)              E (eV)       Diff (eV) with prev. cycle
                        -----      --------------------        ------       --------------------------
 S
               1        1.000     -0.23861775226993E+00        -6.493               7.43E-09
               2        0.000      0.90791701709251E-01         2.471
               3        0.000      0.15217530108908E+01        41.409
 P
               1        0.000      0.40537978060393E+00        11.031


 Partially Occupied:
               1 S                -0.23861775226993E+00
  
 LUMO :        2 S                 0.90791701709251E-01
  


 Orbital Energies, all Irreps
 ========================================

 Irrep        no.  (spin)   Occup              E (au)                E (eV)
 ---------------------------------------------------------------------------
 S             1             1.00       -0.23861775226993E+00        -6.4931
 S             2             0.00        0.90791701709251E-01         2.4706
 P             1             0.00        0.40537978060393E+00        11.0309
 S             3             0.00        0.15217530108908E+01        41.4090


 All Electron Calculation, thus no Orbital Energies of the Core Orbitals are calculated



 =======================================
 M U L L I K E N   P O P U L A T I O N S
 =======================================
  
 The survey below gives for each atom:
 a) the total charge (Z minus electrons)
 b) the net spin polarization (nr of electrons spin-A minus spin-B)
 c) for each spin the atomic electron valence density (integrated) per L-value.

 Atom              Charge    Spin density          S         P         D         F
 ----              ------    ------------       ------    ------    ------    ------
 1 H              -0.0000                       1.0000    0.0000    0.0000    0.0000

 Populations of individual BAS functions
 ----------------------------------------
 1 H            0.2104  0.6788  0.1107  0.0000  0.0000  0.0000

 Gross Charges per Atom (Z minus electrons)
 ==========================================
            -0.0000
 Net Total: -0.00000000



 =======================================================================
 Electrostatic potential at the Nuclei due to electrons and other nuclei
 =======================================================================
  
         Atom                  Potential
         ----                  ---------
     1)   H                   0.94468022
 
 
 ========================
 No memory problems found
 ========================
 
 Maximum number of active allocate calls:         306
 
 *******************************************************************************

                             A D F   E X I T
 NORMAL TERMINATION



 =================
 Timing Statistics
 =================
  
 Total Used :                     CPU=        0.32      System=        0.03     Elapsed=        0.38

 Calls  Section                     ( Mean, Percentage )
 ---------------------------------------------------------------------------------------------------
     3  ><      ................      0.00    1.23             0.00    0.00             0.00    1.03
     1  INIT    ................      0.06   19.75             0.01   28.57             0.08   20.14
     1  GEOMET  ................      0.02    4.94             0.00   14.29             0.02    5.90
     1  INPUTA  ................      0.00    0.00             0.00    0.00             0.00    0.88
     1  MAINSY  ................      0.01    2.47             0.00   14.28             0.02    4.21
     1  SYMFIT  ................      0.00    0.00             0.00    0.00             0.00    0.42
     1  CORORT  ................      0.00    0.00             0.00    0.00             0.00    0.32
     1  SYMORB  ................      0.00    0.00             0.00   14.28             0.00    0.18
     1  CLSMAT  ................      0.00    1.23             0.00    0.00             0.01    1.34
     1  ORTHON  ................      0.00    1.23             0.00    0.00             0.00    1.22
     1  GENPT   ................      0.01    2.47             0.00   14.28             0.01    3.24
     1  PTBAS   ................      0.00    1.23             0.00    0.00             0.01    1.34
     8  FOCKY   ................      0.02   46.91             0.00    0.00             0.02   44.24
     8  FOCKTR  ................      0.00    0.00             0.00    0.00             0.00    1.23
     8  SDIIS   ................      0.00    9.88             0.00   14.29             0.00    5.59
     1  COREPS  ................      0.01    3.70             0.00    0.00             0.01    3.64
     1  POPAN   ................      0.00    1.23             0.00    0.00             0.00    1.20
     1  DEBYE   ................      0.00    0.00             0.00    0.00             0.00    0.48
     1  EXIT PROCEDURE .........      0.01    3.70             0.00    0.00             0.01    3.39


 Currently Open Files (EXIT00)
 ====================

 Unit    Access Format  Status   Type       Ident (file)
 -------------------------------------------------------
   3      SEQ    FORM   TRANSP  NORMAL      LOGFILE
                                          ( logfile )

 ***************************************************************************************************
 (LOGFILE)
 <Oct09-2020> <19:36:39>  DIRAC 2019  RunTime: Oct09-2020 19:36:39  Nodes: 1  Procs: 1
 <Oct09-2020> <19:36:39>  NORMAL TERMINATION
 <Oct09-2020> <19:36:39>  END
 <Oct09-2020> <19:36:39>  ADF 2019  RunTime: Oct09-2020 19:36:39  Nodes: 1  Procs: 1
 <Oct09-2020> <19:36:39>  Hydrogen (TZP)
 <Oct09-2020> <19:36:39>  RunType   : CREATE
 <Oct09-2020> <19:36:39>  Net Charge: 0 (Nuclei minus Electrons)
 <Oct09-2020> <19:36:39>  Symmetry  : ATOM
  Coordinates
    Atom         X           Y           Z   (Angstrom)
    1.H         0.000000    0.000000    0.000000
 <Oct09-2020> <19:36:39>  >>>> CORORT
 <Oct09-2020> <19:36:39>  >>>> CLSMAT
 <Oct09-2020> <19:36:39>  >>>> ORTHON
 <Oct09-2020> <19:36:39>  >>>> GENPT
 <Oct09-2020> <19:36:39>  Block Length=  64
 <Oct09-2020> <19:36:39>  >>>> PTBAS
 <Oct09-2020> <19:36:39>  >>>> CYCLE
 <Oct09-2020> <19:36:39>              |Error|         MaxErr       Wt(A-DIIS)
 <Oct09-2020> <19:36:39>      1      0.00000000      0.00000000
 <Oct09-2020> <19:36:39>      2      0.03153787      0.03011049
 <Oct09-2020> <19:36:39>      3      0.00861799      0.00834303    100.0
 <Oct09-2020> <19:36:39>      4      0.00173235      0.00171862      0.7
 <Oct09-2020> <19:36:39>      5      0.00004367      0.00003977      0.0
 <Oct09-2020> <19:36:39>      6      0.00000238      0.00000216      0.0
 <Oct09-2020> <19:36:39>      7      0.00000001      0.00000001      0.0
 <Oct09-2020> <19:36:39>  SCF converged
 <Oct09-2020> <19:36:39>      8      0.00000000      0.00000000      0.0
 <Oct09-2020> <19:36:39>  >>>> POPAN
 <Oct09-2020> <19:36:39>  >>>> DEBYE
 <Oct09-2020> <19:36:40>  NORMAL TERMINATION
 <Oct09-2020> <19:36:40>  END

 *******************************************************************************
 *                                                                             *
 *  -------------------------------------                                      *
 *   Amsterdam Density Functional  (ADF)         2019                          *
 *  -------------------------------------                                      *
 *                                               r79301 2019-11-09             *
 *                                                                             *
 *                                                                             *
 *                            =====================                            *
 *                            |                   |                            *
 *                            |     D I R A C     |                            *
 *                            |                   |                            *
 *                            =====================                            *
 *                                                                             *
 *                                                                             *
 *   Online information and documentation:  https://www.scm.com/support/       *
 *   E-mail:  support@scm.com   info@scm.com                                   *
 *                                                                             *
 *   Scientific publications using ADF results must be properly referenced     *
 *   See the User Manuals (or the web site) for recommended citations          *
 *   The terms and conditions of the End User License Agreement apply to       *
 *   the use of ADF, https://www.scm.com/license-terms/                        *
 *                                                                             *
 **********************  x86_64_linux_intel / intelmpi  ************************
 
 
 
  
 DIRAC 2019  RunTime: Oct09-2020 19:36:40  Nodes: 1  Procs: 1

 Temporary files are created in /scratch/kid_0.330767985 (0x58465342)

1
 TUNGSTEN ATOM 4d CORE RELATIVISTIC, Point Nuc, A and c from 
 N J RN H ZN XION ANUC CLIGHT
 5000   22100.00000000197.36710137 74.00000000  0.00000000  183.950932  0.1370360E+03
  PH   PHI     EPS        DEL        DELRVR
  0.30  0.30     2500.00  0.00001000  0.00001000
 IDIRC  NC1  NDEBU NPRIN  IPUN IRCOR IWCOR
   1   300     0     0     0     0    14
   XALPHA      XLATTER      RNUC
  0.70000000  0.00000000  0.00000000 Point Charge
   XN   XL   XJ      XE          XZ      XDELL
  1.0  0.0  0.5   -2600.000       2.000     0.00000
  2.0  0.0  0.5    -425.000       2.000     0.00000
  2.0  1.0  0.5    -425.000       2.000     0.00000
  2.0  1.0  1.5    -425.000       4.000     0.00000
  3.0  0.0  0.5    -100.000       2.000     0.00000
  3.0  1.0  0.5    -100.000       2.000     0.00000
  3.0  1.0  1.5    -100.000       4.000     0.00000
  3.0  2.0  1.5     -80.000       4.000     0.00000
  3.0  2.0  2.5     -80.000       6.000     0.00000
  4.0  0.0  0.5     -22.000       2.000     0.00000
  4.0  1.0  0.5     -20.000       2.000     0.00000
  4.0  1.0  1.5     -20.000       4.000     0.00000
  4.0  2.0  1.5     -11.000       4.000     0.00000
  4.0  2.0  2.5     -11.000       6.000     0.00000
  4.0  3.0  2.5      -1.000       6.000     0.00000
  4.0  3.0  3.5      -1.000       8.000     0.00000
  5.0  0.0  0.5      -3.000       2.000     0.00000
  5.0  1.0  0.5      -2.200       2.000     0.00000
  5.0  1.0  1.5      -2.200       4.000     0.00000
  5.0  2.0  1.5      -0.500       4.000     0.00000
  5.0  2.0  2.5      -0.500       0.000     0.00000
  6.0  0.0  0.5      -0.200       2.000     0.00000
 ICORP=  0  NPCL=  0  DEMP=0.00  PEPS=0.000000
 R(1)=  0.1000000E-08 D=  0.1005080E+01 RNUC=  0.0000000E+00
 converged at cycle   63  DENSITY AVERAGING    0.1536
  MAXIMUM ERROR IN R.V(R) IS   0.78838062E-05
 Q,EY,EV,EZ,ESUM,ETOT,RHO  0.740000E+02 -0.431420E+03 -0.281568E+05 -0.403919E+05 -0.993885E+04 -0.161643E+05  0.726391E-09


 DIRAC CALCULATION
1                    TUNGSTEN ATOM 4d CORE RELATIVISTIC, Point Nuc, A and c from libtc


 EXCHANGE COEFFICIENT=  0.7000000           TAIL CORRECTION=  0.           NUCLEAR RADIUS=  0.000E+00
0                       ORBITAL    N    L    J     ELECTRONS     EIGENVALUE                DELTA OF EIGENV.

                          1S1/2  1.0  0.0  0.5     2.000       -0.2549514E+04                 0.5980248E-04
                          2S1/2  2.0  0.0  0.5     2.000       -0.4399118E+03                 0.5052420E-04
                          2P1/2  2.0  1.0  0.5     2.000       -0.4208427E+03                 0.5265062E-04
                          2P3/2  2.0  1.0  1.5     4.000       -0.3711192E+03                 0.5139441E-04
                          3S1/2  3.0  0.0  0.5     2.000       -0.1012881E+03                 0.3437035E-04
                          3P1/2  3.0  1.0  0.5     2.000       -0.9277148E+02                 0.3553128E-04
                          3P3/2  3.0  1.0  1.5     4.000       -0.8201733E+02                 0.3404634E-04
                          3D3/2  3.0  2.0  1.5     4.000       -0.6762803E+02                 0.3680712E-04
                          3D5/2  3.0  2.0  2.5     6.000       -0.6528623E+02                 0.3629511E-04
                          4S1/2  4.0  0.0  0.5     2.000       -0.2084139E+02                 0.1939427E-04
                          4P1/2  4.0  1.0  0.5     2.000       -0.1730737E+02                 0.1933978E-04
                          4P3/2  4.0  1.0  1.5     4.000       -0.1480597E+02                 0.1810922E-04
                          4D3/2  4.0  2.0  1.5     4.000       -0.8989319E+01                 0.1779394E-04
                          4D5/2  4.0  2.0  2.5     6.000       -0.8528007E+01                 0.1741170E-04
                          4F5/2  4.0  3.0  2.5     6.000       -0.1237480E+01                 0.1544089E-04
                          4F7/2  4.0  3.0  3.5     8.000       -0.1154634E+01                 0.1522033E-04
                          5S1/2  5.0  0.0  0.5     2.000       -0.2863514E+01                 0.7979521E-05
                          5P1/2  5.0  1.0  0.5     2.000       -0.1813289E+01                 0.7246225E-05
                          5P3/2  5.0  1.0  1.5     4.000       -0.1448762E+01                 0.6602120E-05
                          5D3/2  5.0  2.0  1.5     4.000       -0.1486933E+00                 0.3973088E-05
                          5D5/2  5.0  2.0  2.5     0.000       -0.1223153E+00                 0.3735081E-05
                          6S1/2  6.0  0.0  0.5     2.000       -0.1847434E+00                 0.1808440E-05


                                        NUCLEAR CHARGE=   74.000000
                            INTEGRAL OF CHARGE DENSITY=   74.000000
                           SUM OF THE ORBITAL ENERGIES=  -9938.8529
                                          TOTAL ENERGY= -16164.2530
                                        KINETIC ENERGY=  18217.9700
                             NUCLEAR ATTRACTION ENERGY= -40391.9132
                             ELECTRON REPULSION ENERGY=   6333.2551
                                       EXCHANGE ENERGY=   -323.5649

 *******************************************************************************

                             D I R A C   E X I T
 NORMAL TERMINATION



 =================
 Timing Statistics
 =================
  
 Total Used :                     CPU=        0.68      System=        0.01     Elapsed=        0.69

 Calls  Section                     ( Mean, Percentage )
 ---------------------------------------------------------------------------------------------------
     2  ><      ................      0.00    0.00             0.00    0.00             0.00    0.00
     1  EXIT PROCEDURE .........      0.68  100.00             0.01  100.00             0.69  100.00


 Currently Open Files (EXIT00)
 ====================

 Unit    Access Format  Status   Type       Ident (file)
 -------------------------------------------------------
   3      SEQ    FORM   TRANSP  NORMAL      LOGFILE
                                          ( logfile )
 
Create W   file=TZP-W.4d
XC
  GGA PBE
End
relativistic ZORA
Corepotentials t12.rel
End

 *******************************************************************************
 *                                                                             *
 *  -------------------------------------                                      *
 *   Amsterdam Density Functional  (ADF)         2019                          *
 *  -------------------------------------                                      *
 *                                               r79301 2019-11-09             *
 *                                                                             *
 *                                                                             *
 *                              =================                              *
 *                              |               |                              *
 *                              |     A D F     |                              *
 *                              |               |                              *
 *                              =================                              *
 *                                                                             *
 *                                                                             *
 *   Online information and documentation:  https://www.scm.com/support/       *
 *   E-mail:  support@scm.com   info@scm.com                                   *
 *                                                                             *
 *   Scientific publications using ADF results must be properly referenced     *
 *   See the User Manuals (or the web site) for recommended citations          *
 *   The terms and conditions of the End User License Agreement apply to       *
 *   the use of ADF, https://www.scm.com/license-terms/                        *
 *                                                                             *
 **********************  x86_64_linux_intel / intelmpi  ************************
 
 
 
  
 ADF 2019  RunTime: Oct09-2020 19:36:40  Nodes: 1  Procs: 1

 Temporary files are created in /scratch/kid_0.1645505115 (0x58465342)

 Tungsten (TZP, 4d frozen)



 ===========================
 A T T A C H E D   F I L E S
 ===========================
  
 CREATE - Data File:    TZP-W.4d
                        Tungsten (TZP, 4d frozen)
 Core Potentials:
         file : t12.rel



 ===============================
 M O D E L   P A R A M E T E R S
 ===============================
  
 DENSITY FUNCTIONAL POTENTIAL (scf)
    LDA:                               PW92                                    == Not Default ==
    Gradient Corrections:              PBEc PBEx                               == Not Default ==

 SPIN  (restricted / unrestr.)
    Molecule:                          Restricted                               

 OTHER ASPECTS
    Relativistic Corrections:          scalar (ZORA,MAPA)                      == Not Default ==

    Nuclear Charge Density Model:      Point Charge Nuclei                      
    Core Treatment:                    Frozen Orbital(s)                        

    Hyperfine or Zeeman Interaction:   ---                                      



 =====================================
 S Y M M E T R Y ,   E L E C T R O N S
 =====================================
  
 Symmetry: ATOM

 Irreducible Representations, including subspecies
 -------------------------------------------------
 S
 P:x  P:y  P:z
 D:z2  D:x2-y2  D:xy  D:xz  D:yz
 F:z3  F:z  F:xyz  F:z2x  F:z2y  F:x  F:y


 Configuration of Valence Electrons
 ==================================

          Occupation Numbers
          -------------------------------------------------
 S        2*2
 P        6
 D        4
 F        14
          -------------------------------------------------

 Total:   28

 Net Charge: 0 (Nuclei minus Electrons)

 Preset values for MO occupations will be applied through SCF cycle no. 1000000
 Thereafter, the program will assign electrons to MOs that are spatially
 similar to the occupied MOs in a "reference" cycle ("KeepOrbitals").
 The reference cycle is always the PREVIOUS cycle: it will evolve with
 the SCF procedure.



 ================================
 (Slater-type)  F U N C T I O N S  ***  (Basis and Fit)  ***
 ================================
  

 Atom Type    1  (W)
 ==============

 Valence Basis Sets:  25
 -----------------------
   1 S   52.000000
   2 S   33.250000
   3 S   19.100000
   4 S   11.650000
   2 P   36.850000
   3 P   16.500000
   4 P   11.550000
   3 D   20.100000
   4 D   10.300000
   1 S  163.900000
   5 S    6.050000
   5 S    3.950000
   6 S    2.850000
   6 S    1.800000
   6 S    1.140000
   5 P    5.900000
   5 P    4.000000
   5 P    2.700000
   5 D    4.150000
   5 D    2.250000
   5 D    1.200000
   4 F   13.550000
   4 F    7.050000
   4 F    3.550000
   6 P    1.800000

 Frozen Core Shells
 ------------------
    S:  4
    P:  3
    D:  2


 BAS: List of all Elementary Cartesian Basis Functions
 =====================================================

 The numbering in the list below (to the right of the function characteristics) is referred
 to in print-outs of MO eigenvectors and Mulliken populations in the BAS representation
 (as contrasted to the SFO representation).

 Notes:
 1. The functions are characterized by a polynomial prefactor (powers of x,y,z and r) and
    an exponential decay factor alpha.
 2. Since the basis sets are specific for an atom TYPE, the individual functions occur on
    all atoms of that type.
 3. The word 'Core' in the left margin signals that it is a Core Function (CF) : not a
    degree of freedom in the valence set, but only used to ensure orthogonalization of
    the other valence basis functions on the frozen Core Orbitals.


 (power of) X  Y  Z  R     Alpha  on Atom
            ==========     =====     ==========

 W                                    1
                                  ---------------------------------------------------------------------------
    Core    0  0  0  0    52.000      1
    Core    0  0  0  1    33.250      2
    Core    0  0  0  2    19.100      3
    Core    0  0  0  3    11.650      4
    Core    1  0  0  0    36.850      5
    Core    0  1  0  0    36.850      6
    Core    0  0  1  0    36.850      7
    Core    1  0  0  1    16.500      8
    Core    0  1  0  1    16.500      9
    Core    0  0  1  1    16.500     10
    Core    1  0  0  2    11.550     11
    Core    0  1  0  2    11.550     12
    Core    0  0  1  2    11.550     13
    Core    2  0  0  0    20.100     14
    Core    1  1  0  0    20.100     15
    Core    1  0  1  0    20.100     16
    Core    0  2  0  0    20.100     17
    Core    0  1  1  0    20.100     18
    Core    0  0  2  0    20.100     19
    Core    2  0  0  1    10.300     20
    Core    1  1  0  1    10.300     21
    Core    1  0  1  1    10.300     22
    Core    0  2  0  1    10.300     23
    Core    0  1  1  1    10.300     24
    Core    0  0  2  1    10.300     25
            0  0  0  0   163.900     26
            0  0  0  4     6.050     27
            0  0  0  4     3.950     28
            0  0  0  5     2.850     29
            0  0  0  5     1.800     30
            0  0  0  5     1.140     31
            1  0  0  3     5.900     32
            0  1  0  3     5.900     33
            0  0  1  3     5.900     34
            1  0  0  3     4.000     35
            0  1  0  3     4.000     36
            0  0  1  3     4.000     37
            1  0  0  3     2.700     38
            0  1  0  3     2.700     39
            0  0  1  3     2.700     40
            2  0  0  2     4.150     41
            1  1  0  2     4.150     42
            1  0  1  2     4.150     43
            0  2  0  2     4.150     44
            0  1  1  2     4.150     45
            0  0  2  2     4.150     46
            2  0  0  2     2.250     47
            1  1  0  2     2.250     48
            1  0  1  2     2.250     49
            0  2  0  2     2.250     50
            0  1  1  2     2.250     51
            0  0  2  2     2.250     52
            2  0  0  2     1.200     53
            1  1  0  2     1.200     54
            1  0  1  2     1.200     55
            0  2  0  2     1.200     56
            0  1  1  2     1.200     57
            0  0  2  2     1.200     58
            3  0  0  0    13.550     59
            2  1  0  0    13.550     60
            2  0  1  0    13.550     61
            1  2  0  0    13.550     62
            1  1  1  0    13.550     63
            1  0  2  0    13.550     64
            0  3  0  0    13.550     65
            0  2  1  0    13.550     66
            0  1  2  0    13.550     67
            0  0  3  0    13.550     68
            3  0  0  0     7.050     69
            2  1  0  0     7.050     70
            2  0  1  0     7.050     71
            1  2  0  0     7.050     72
            1  1  1  0     7.050     73
            1  0  2  0     7.050     74
            0  3  0  0     7.050     75
            0  2  1  0     7.050     76
            0  1  2  0     7.050     77
            0  0  3  0     7.050     78
            3  0  0  0     3.550     79
            2  1  0  0     3.550     80
            2  0  1  0     3.550     81
            1  2  0  0     3.550     82
            1  1  1  0     3.550     83
            1  0  2  0     3.550     84
            0  3  0  0     3.550     85
            0  2  1  0     3.550     86
            0  1  2  0     3.550     87
            0  0  3  0     3.550     88
            1  0  0  4     1.800     89
            0  1  0  4     1.800     90
            0  0  1  4     1.800     91

 Total number of charge fitting functions (nprimf)       329
 Total number of Cartesian basis functions (naos)         91
 Total number of Cartesian core functions  (ncos)         25



 BAS: List of all Elementary Cartesian Basis Functions
 =====================================================

 The numbering in the list below (to the right of the function characteristics) is referred
 to in print-outs of MO eigenvectors and Mulliken populations in the BAS representation
 (as contrasted to the SFO representation).

 Notes:
 1. The functions are characterized by a polynomial prefactor (powers of x,y,z and r) and
    an exponential decay factor alpha.
 2. Since the basis sets are specific for an atom TYPE, the individual functions occur on
    all atoms of that type.
 3. The word 'Core' in the left margin signals that it is a Core Function (CF) : not a
    degree of freedom in the valence set, but only used to ensure orthogonalization of
    the other valence basis functions on the frozen Core Orbitals.


 (power of) X  Y  Z  R     Alpha  on Atom
            ==========     =====     ==========

 W                                    1
                                  ---------------------------------------------------------------------------
    Core    0  0  0  0    52.000      1
    Core    0  0  0  1    33.250      2
    Core    0  0  0  2    19.100      3
    Core    0  0  0  3    11.650      4
    Core    1  0  0  0    36.850      5
    Core    0  1  0  0    36.850      6
    Core    0  0  1  0    36.850      7
    Core    1  0  0  1    16.500      8
    Core    0  1  0  1    16.500      9
    Core    0  0  1  1    16.500     10
    Core    1  0  0  2    11.550     11
    Core    0  1  0  2    11.550     12
    Core    0  0  1  2    11.550     13
    Core    2  0  0  0    20.100     14
    Core    1  1  0  0    20.100     15
    Core    1  0  1  0    20.100     16
    Core    0  2  0  0    20.100     17
    Core    0  1  1  0    20.100     18
    Core    0  0  2  0    20.100     19
    Core    2  0  0  1    10.300     20
    Core    1  1  0  1    10.300     21
    Core    1  0  1  1    10.300     22
    Core    0  2  0  1    10.300     23
    Core    0  1  1  1    10.300     24
    Core    0  0  2  1    10.300     25
            0  0  0  0   163.900     26
            0  0  0  4     6.050     27
            0  0  0  4     3.950     28
            0  0  0  5     2.850     29
            0  0  0  5     1.800     30
            0  0  0  5     1.140     31
            1  0  0  3     5.900     32
            0  1  0  3     5.900     33
            0  0  1  3     5.900     34
            1  0  0  3     4.000     35
            0  1  0  3     4.000     36
            0  0  1  3     4.000     37
            1  0  0  3     2.700     38
            0  1  0  3     2.700     39
            0  0  1  3     2.700     40
            2  0  0  2     4.150     41
            1  1  0  2     4.150     42
            1  0  1  2     4.150     43
            0  2  0  2     4.150     44
            0  1  1  2     4.150     45
            0  0  2  2     4.150     46
            2  0  0  2     2.250     47
            1  1  0  2     2.250     48
            1  0  1  2     2.250     49
            0  2  0  2     2.250     50
            0  1  1  2     2.250     51
            0  0  2  2     2.250     52
            2  0  0  2     1.200     53
            1  1  0  2     1.200     54
            1  0  1  2     1.200     55
            0  2  0  2     1.200     56
            0  1  1  2     1.200     57
            0  0  2  2     1.200     58
            3  0  0  0    13.550     59
            2  1  0  0    13.550     60
            2  0  1  0    13.550     61
            1  2  0  0    13.550     62
            1  1  1  0    13.550     63
            1  0  2  0    13.550     64
            0  3  0  0    13.550     65
            0  2  1  0    13.550     66
            0  1  2  0    13.550     67
            0  0  3  0    13.550     68
            3  0  0  0     7.050     69
            2  1  0  0     7.050     70
            2  0  1  0     7.050     71
            1  2  0  0     7.050     72
            1  1  1  0     7.050     73
            1  0  2  0     7.050     74
            0  3  0  0     7.050     75
            0  2  1  0     7.050     76
            0  1  2  0     7.050     77
            0  0  3  0     7.050     78
            3  0  0  0     3.550     79
            2  1  0  0     3.550     80
            2  0  1  0     3.550     81
            1  2  0  0     3.550     82
            1  1  1  0     3.550     83
            1  0  2  0     3.550     84
            0  3  0  0     3.550     85
            0  2  1  0     3.550     86
            0  1  2  0     3.550     87
            0  0  3  0     3.550     88
            1  0  0  4     1.800     89
            0  1  0  4     1.800     90
            0  0  1  4     1.800     91
1
 ***************************************************************************************************



                                              ***********************
                                              *  T E C H N I C A L  *
                                              ***********************
  



 =============================================================
 P A R A L L E L I Z A T I O N  and  V E C T O R I Z A T I O N
 =============================================================
  
 Nr of parallel processes:                                1
 Maximum vector length in NumInt loops:                 128



 =====================
 S C F   U P D A T E S
 =====================
  
 Max. nr. of cycles:                               300
 Convergence criterion:                              0.0000000100
   secondary criterion:                              0.0000000100

 Mix parameter (when DIIS does not apply):           0.2000000000
 Special mix parameter for the first cycle:          1.0000000000
 Mixed ADIIS+SDIIS will be used                  
    Max number of expansion vectors:                10
    Pure ADIIS when Max([F,P]) is above              0.1000000000
    Pure SDIIS when Max([F,P]) is below              0.0010000000
 Automatic ElectronSmearing (in case of problematic SCF convergence) disabled



 =================
 P R E C I S I O N  ***  (General: NumInt, NeglectFunctionTails, ...)  ***
 =================
  

 NumInt:           Target precision:                12.0000000000
 -------           Initial precision:               10.0000000000
                   Min. precision (optimization):   10.0000000000

 Neglect Functions:          Basis functions:        0.1000000000E-13
 ------------------          Fit functions:          0.1000000000E-13



 ===========================
 L I N E A R   S C A L I N G
 ===========================
  

 Cut-off radii density fit:                        0.1000000000E-97
 Overlap cut-off criterion AO matrix elements:     0.1000000000E-97
 Cut-offs for Coulomb potential and fitted density:0.1000000000E-97
 Cut-off criterion for Coulomb multipole terms:    0.1000000000E-97
 Progressive Convergence parameter:                 0.000000000    
1
 ***************************************************************************************************



                                            ***************************
                                            *  C O M P U T A T I O N  *
                                            ***************************
  

 Number of elements of the density matrix on this node (used, total):      4186      4186



 ===========================================
 Numerical Integration : Fuzzy Cells (Becke)
 ===========================================
  
 Becke grid quality: VERYGOOD       
  
 Lebedev angular grid order:             min:  13 max:  41
 Nr. of radial points:                   min: 145 max: 145

 Total nr. of points:        145
 Nr. of blocks:                2
 Block length:                73
 Nr. of dummy points:          1


 Test of Precision of the Numerical Integration Grid
 ===================================================

 Integral of the Total Core Density:                  46.00000002324492
 Relative Error:                                       5.053E-10



 ========================
 Density Fitting (zlmFit)
 ========================
  
 ZlmFit Fit Quality: VERYGOOD       
  
 Max L-expansion:                        min:   0 max:   0
 Nr. of radial interpolation points:     min: 340 max: 340



 =====
 S C F  ***  ScaSCF  ***
 =====
  

 CYCLE    1
 SCF Error: norm([F,P])=      0.000000000000, max([F,P])=      0.000000000000
 orbitals (Q,E):
 ---------------
 S :1...6            ( 2.00   -28.2058)  ( 2.00   -16.4725)  ( 0.00   -10.3738)  ( 0.00    -6.6321)
                     ( 0.00    -4.0998)  ( 0.00  3013.3587)
 P :1...4            ( 6.00   -26.2502)  ( 0.00   -15.6809)  ( 0.00   -10.1451)  ( 0.00    -6.3840)
 D :1...3            ( 4.00   -20.3774)  ( 0.00   -10.3968)  ( 0.00    -5.4917)
 F :1...3            (14.00   -35.0607)  ( 0.00   -19.0417)  ( 0.00   -12.0152)

 CYCLE    2
  SDIIS (wt  0.000):  1.0000  0.0000
 A-DIIS (wt  1.000):  0.1993  0.8007
  DIIS coefficients:  0.1993  0.8007
 SCF Error: norm([F,P])=     40.907082825658, max([F,P])=      9.977402120499
 orbitals (Q,E):
 ---------------
 S :1...3            ( 2.00    -4.6780)  ( 2.00    -1.8638)  ( 0.00    -0.9989)
 P :1...2            ( 6.00    -3.4915)  ( 0.00    -1.5122)
 D :1...2            ( 4.00    -2.0619)  ( 0.00    -1.0071)
 F :1...2            (14.00    -1.8107)  ( 0.00     1.1317)

 CYCLE    3
  SDIIS (wt  0.000):  0.3180  0.6820
 A-DIIS (wt  1.000):  0.2378  0.7622
  DIIS coefficients:  0.2378  0.7622
 SCF Error: norm([F,P])=     22.137766809988, max([F,P])=      7.956550621467
 orbitals (Q,E):
 ---------------
 S :1...3            ( 2.00    -3.1832)  ( 2.00    -0.0954)  ( 0.00     0.0950)
 P :1...2            ( 6.00    -1.7164)  ( 0.00     0.0796)
 D :1...2            ( 4.00    -0.0523)  ( 0.00     0.2166)
 F :1...2            (14.00    -2.9552)  ( 0.00     2.1680)

 CYCLE    4
  SDIIS (wt  0.000): -0.1470  0.2408  0.9063
 A-DIIS (wt  1.000):  0.0000  0.1960  0.8040
  DIIS coefficients:  0.0000  0.1960  0.8040
 SCF Error: norm([F,P])=     11.319258211122, max([F,P])=      3.388378774288
 orbitals (Q,E):
 ---------------
 S :1...3            ( 2.00    -2.5382)  ( 2.00    -0.1744)  ( 0.00     0.0568)
 P :1...2            ( 6.00    -1.3109)  ( 0.00     0.0041)
 D :1...2            ( 4.00    -0.0593)  ( 0.00     0.1840)
 F :1...2            (14.00    -0.4483)  ( 0.00     2.6543)

 CYCLE    5
  SDIIS (wt  0.000): -0.0453 -0.0639  0.4150  0.6941
 A-DIIS (wt  1.000):  0.0000  0.0000  0.2956  0.7044
  DIIS coefficients:  0.0000  0.0000  0.2956  0.7044
 SCF Error: norm([F,P])=      6.468352795626, max([F,P])=      2.222974642389
 orbitals (Q,E):
 ---------------
 S :1...3            ( 2.00    -3.2723)  ( 2.00    -0.3187)  ( 0.00     0.0098)
 P :1...2            ( 6.00    -1.9237)  ( 0.00    -0.1006)
 D :1...2            ( 4.00    -0.3847)  ( 0.00     0.0899)
 F :1...2            (14.00    -1.8198)  ( 0.00     1.9560)

 CYCLE    6
  SDIIS (wt  0.000): -0.0085 -0.0399  0.0839  0.4322  0.5323
 A-DIIS (wt  1.000):  0.0000  0.0000  0.0000  0.2109  0.7891
  DIIS coefficients:  0.0000  0.0000  0.0000  0.2109  0.7891
 SCF Error: norm([F,P])=      2.472496419763, max([F,P])=      0.770355067313
 orbitals (Q,E):
 ---------------
 S :1...3            ( 2.00    -2.6997)  ( 2.00    -0.1670)  ( 0.00     0.0637)
 P :1...2            ( 6.00    -1.4226)  ( 0.00     0.0144)
 D :1...2            ( 4.00    -0.0756)  ( 0.00     0.1818)
 F :1...2            (14.00    -0.9561)  ( 0.00     2.4590)

 CYCLE    7
  SDIIS (wt  0.000): -0.0027  0.0194 -0.0224 -0.1264  0.3712  0.7611
 A-DIIS (wt  1.000):  0.0000  0.0000  0.0000  0.0000  0.2987  0.7013
  DIIS coefficients:  0.0000  0.0000  0.0000  0.0000  0.2987  0.7013
 SCF Error: norm([F,P])=      1.326888571519, max([F,P])=      0.409877416513
 orbitals (Q,E):
 ---------------
 S :1...3            ( 2.00    -2.9765)  ( 2.00    -0.2356)  ( 0.00     0.0368)
 P :1...2            ( 6.00    -1.6652)  ( 0.00    -0.0389)
 D :1...2            ( 4.00    -0.2166)  ( 0.00     0.1330)
 F :1...2            (14.00    -1.3505)  ( 0.00     2.2150)

 CYCLE    8
  SDIIS (wt  0.000): -0.0001 -0.0032  0.0101  0.0022 -0.1365  0.1637  0.9637
 A-DIIS (wt  1.000):  0.0000  0.0000  0.0000  0.0000  0.0000  0.1133  0.8867
  DIIS coefficients:  0.0000  0.0000  0.0000  0.0000  0.0000  0.1133  0.8867
 SCF Error: norm([F,P])=      0.417265552811, max([F,P])=      0.123103983384
 orbitals (Q,E):
 ---------------
 S :1...3            ( 2.00    -2.8269)  ( 2.00    -0.1934)  ( 0.00     0.0514)
 P :1...2            ( 6.00    -1.5319)  ( 0.00    -0.0062)
 D :1...2            ( 4.00    -0.1328)  ( 0.00     0.1598)
 F :1...2            (14.00    -1.1429)  ( 0.00     2.3483)

 CYCLE    9
  SDIIS (wt  0.000): -0.0000 -0.0005  0.0032 -0.0055 -0.0134 -0.0769  0.3889  0.7044
 A-DIIS (wt  1.000):  0.0000  0.0000  0.0000  0.0000  0.0000  0.0000  0.4605  0.5395
  DIIS coefficients:  0.0000  0.0000  0.0000  0.0000  0.0000  0.0000  0.4605  0.5395
 SCF Error: norm([F,P])=      0.436344656895, max([F,P])=      0.135977974745
 orbitals (Q,E):
 ---------------
 S :1...3            ( 2.00    -2.8921)  ( 2.00    -0.2089)  ( 0.00     0.0455)
 P :1...2            ( 6.00    -1.5884)  ( 0.00    -0.0182)
 D :1...2            ( 4.00    -0.1653)  ( 0.00     0.1491)
 F :1...2            (14.00    -1.2444)  ( 0.00     2.2903)

 CYCLE   10
  SDIIS (wt  0.791): -0.0000 -0.0000 -0.0008  0.0050  0.0002 -0.0572  0.0662  0.2518  0.7349
 A-DIIS (wt  0.209):  0.0000  0.0000  0.0000  0.0000  0.0000  0.0000  0.0000  0.0000  1.0000
  DIIS coefficients: -0.0000 -0.0000 -0.0006  0.0039  0.0002 -0.0453  0.0524  0.1992  0.7903
 SCF Error: norm([F,P])=      0.064290018174, max([F,P])=      0.021683563602
 orbitals (Q,E):
 ---------------
 S :1...3            ( 2.00    -2.8892)  ( 2.00    -0.2088)  ( 0.00     0.0453)
 P :1...2            ( 6.00    -1.5864)  ( 0.00    -0.0182)
 D :1...2            ( 4.00    -0.1648)  ( 0.00     0.1492)
 F :1...2            (14.00    -1.2344)  ( 0.00     2.2932)

 CYCLE   11
  SDIIS (wt  0.943):  0.0000  0.0000  0.0003 -0.0019 -0.0002  0.0169 -0.0071 -0.0713  1.0633
 A-DIIS (wt  0.057):  0.0000  0.0000  0.0000  0.0000  0.0000  0.0000  0.0000  0.0000  1.0000
  DIIS coefficients:  0.0000  0.0000  0.0003 -0.0018 -0.0002  0.0159 -0.0067 -0.0673  1.0597
 SCF Error: norm([F,P])=      0.019862243149, max([F,P])=      0.006614525832
 orbitals (Q,E):
 ---------------
 S :1...3            ( 2.00    -2.8906)  ( 2.00    -0.2091)  ( 0.00     0.0452)
 P :1...2            ( 6.00    -1.5875)  ( 0.00    -0.0184)
 D :1...2            ( 4.00    -0.1654)  ( 0.00     0.1490)
 F :1...2            (14.00    -1.2376)  ( 0.00     2.2919)

 CYCLE   12
  SDIIS (wt  1.000):  0.0000 -0.0000  0.0001  0.0002 -0.0010 -0.0025  0.0027  1.0005
  DIIS coefficients:  0.0000 -0.0000  0.0001  0.0002 -0.0010 -0.0025  0.0027  1.0005
 SCF Error: norm([F,P])=      0.001704368638, max([F,P])=      0.000557703294
 orbitals (Q,E):
 ---------------
 S :1...3            ( 2.00    -2.8904)  ( 2.00    -0.2090)  ( 0.00     0.0452)
 P :1...2            ( 6.00    -1.5874)  ( 0.00    -0.0184)
 D :1...2            ( 4.00    -0.1653)  ( 0.00     0.1490)
 F :1...2            (14.00    -1.2373)  ( 0.00     2.2920)

 CYCLE   13
  SDIIS (wt  1.000): -0.0000 -0.0000 -0.0000 -0.0001  0.0001 -0.0012  0.0054  0.1443  0.8513
  DIIS coefficients: -0.0000 -0.0000 -0.0000 -0.0001  0.0001 -0.0012  0.0054  0.1443  0.8513
 SCF Error: norm([F,P])=      0.000011644128, max([F,P])=      0.000003087302
 orbitals (Q,E):
 ---------------
 S :1...3            ( 2.00    -2.8904)  ( 2.00    -0.2090)  ( 0.00     0.0452)
 P :1...2            ( 6.00    -1.5874)  ( 0.00    -0.0184)
 D :1...2            ( 4.00    -0.1653)  ( 0.00     0.1490)
 F :1...2            (14.00    -1.2373)  ( 0.00     2.2920)

 CYCLE   14
  SDIIS (wt  1.000): -0.0000 -0.0001 -0.0006 -0.0016  1.0022
  DIIS coefficients: -0.0000 -0.0001 -0.0006 -0.0016  1.0022
 SCF Error: norm([F,P])=      0.000000013756, max([F,P])=      0.000000003650
 orbitals (Q,E):
 ---------------
 S :1...3            ( 2.00    -2.8904)  ( 2.00    -0.2090)  ( 0.00     0.0452)
 P :1...2            ( 6.00    -1.5874)  ( 0.00    -0.0184)
 D :1...2            ( 4.00    -0.1653)  ( 0.00     0.1490)
 F :1...2            (14.00    -1.2373)  ( 0.00     2.2920)

 SCF CONVERGED

 CYCLE   15
1
 ***************************************************************************************************



                                                *******************
                                                *  R E S U L T S  *
                                                *******************
  
 *** Using FIT density in Focky
  SDIIS (wt  1.000): -0.0000 -0.0000 -0.0330  1.0330
  DIIS coefficients: -0.0000 -0.0000 -0.0330  1.0330
 SCF Error: norm([F,P])=      0.000000001904, max([F,P])=      0.000000000603

 Scaled ZORA Orbital Energies, per Irrep and Spin:
 =================================================
                        Occup              E (au)              E (eV)       Diff (eV) with prev. cycle
                        -----      --------------------        ------       --------------------------
 S
               1        2.000     -0.28904146058127E+01       -78.652               1.69E-08
               2        2.000     -0.20903700188629E+00        -5.688               1.07E-08
               3        0.000      0.45235059600390E-01         1.231
               4        0.000      0.56065479131102E+00        15.256
               5        0.000      0.33274541694695E+01        90.545
               6        0.000      0.30455860934223E+04     82874.614
 P
               1        6.000     -0.15873724268739E+01       -43.195               1.66E-08
               2        0.000     -0.18381804002204E-01        -0.500
               3        0.000      0.75931517673518E+00        20.662
               4        0.000      0.46642512103918E+01       126.921
 D
               1        4.000     -0.16528259673378E+00        -4.498               1.44E-08
               2        0.000      0.14901440684398E+00         4.055
               3        0.000      0.12244232958062E+01        33.318
 F
               1       14.000     -0.12372769632872E+01       -33.668               2.06E-08
               2        0.000      0.22920435821192E+01        62.370
               3        0.000      0.17401159156906E+02       473.510


 Partially Occupied:
               1 D                -0.16528259673378E+00
  
 HOMO :        2 S                -0.20903700188629E+00
 LUMO :        2 P                -0.18381804002204E-01
  


 Orbital Energies, all Irreps
 ========================================

 Irrep        no.  (spin)   Occup              E (au)                E (eV)
 ---------------------------------------------------------------------------
 S             1             2.00       -0.28904146058127E+01       -78.6522
 P             1             6.00       -0.15873724268739E+01       -43.1946
 F             1            14.00       -0.12372769632872E+01       -33.6680
 S             2             2.00       -0.20903700188629E+00        -5.6882
 D             1             4.00       -0.16528259673378E+00        -4.4976
 P             2             0.00       -0.18381804002204E-01        -0.5002
 S             3             0.00        0.45235059600390E-01         1.2309
 D             2             0.00        0.14901440684398E+00         4.0549
 S             4             0.00        0.56065479131102E+00        15.2562
 P             3             0.00        0.75931517673518E+00        20.6620
 D             3             0.00        0.12244232958062E+01        33.3183
 F             2             0.00        0.22920435821192E+01        62.3697
 S             5             0.00        0.33274541694695E+01        90.5446
 P             4             0.00        0.46642512103918E+01       126.9207
 F             3             0.00        0.17401159156906E+02       473.5096
 S             6             0.00        0.30455860934223E+04     82874.6143


 Scaled ZORA Orbital Energies of the Core Orbitals:
 ==================================================

 (Note that the atoms are grouped by atomtype, see the labels, and may hence NOT be in input order)

 AtomType  Orbital  Atom                   E (au)                        E (eV)
 --------  -------  ----           --------------------        ----------------
 W           1S        1          -0.25482138824004E+04              -69340.428
             2S        1          -0.43960984780021E+03              -11962.393
             3S        1          -0.10127263228126E+03               -2755.769
             4S        1          -0.20907119428712E+02                -568.912
             2P        1          -0.38417169137868E+03              -10453.844
             3P        1          -0.84864891065853E+02               -2309.291
             4P        1          -0.15541477299623E+02                -422.905
             3D        1          -0.66165082684733E+02               -1800.444
             4D        1          -0.87737511763508E+01                -238.746



 =======================================
 M U L L I K E N   P O P U L A T I O N S
 =======================================
  
 The survey below gives for each atom:
 a) the total charge (Z minus electrons)
 b) the net spin polarization (nr of electrons spin-A minus spin-B)
 c) for each spin the atomic electron valence density (integrated) per L-value.

 Atom              Charge    Spin density          S         P         D         F
 ----              ------    ------------       ------    ------    ------    ------
 1 W              -0.0000                       4.0000    6.0000    4.0000   14.0000

 Populations of individual BAS functions
 ----------------------------------------
 1 W           -0.0024 -0.0016  0.0017  0.0821  0.0004  0.0004  0.0004 -0.0190 -0.0190 -0.0190
                0.1070  0.1070  0.1070  0.0007  0.0011  0.0011  0.0007  0.0011  0.0007  0.0102
                0.0153  0.0153  0.0102  0.0153  0.0102  0.0002  1.3184  0.6637  0.7095  1.0512
                0.1771  0.5899  0.5899  0.5899  1.2256  1.2256  1.2256  0.0879  0.0879  0.0879
                0.2040  0.3059  0.3059  0.2040  0.3059  0.2040  0.2699  0.4048  0.4048  0.2699
                0.4048  0.2699  0.0486  0.0728  0.0728  0.0486  0.0728  0.0486  0.2159  0.4319
                0.4319  0.4319  0.5399  0.4319  0.2159  0.4319  0.4319  0.2159  0.4698  0.9397
                0.9397  0.9397  1.1746  0.9397  0.4698  0.9397  0.9397  0.4698  0.1142  0.2284
                0.2284  0.2284  0.2855  0.2284  0.1142  0.2284  0.2284  0.1142  0.0081  0.0081
                0.0081

 Gross Charges per Atom (Z minus electrons)
 ==========================================
            -0.0000
 Net Total: -0.00000000



 =======================================================================
 Electrostatic potential at the Nuclei due to electrons and other nuclei
 =======================================================================
  
         Atom                  Potential
         ----                  ---------
     1)   W                 545.46052106
 
 
 ========================
 No memory problems found
 ========================
 
 Maximum number of active allocate calls:         487
 
 *******************************************************************************

                             A D F   E X I T
 NORMAL TERMINATION



 =================
 Timing Statistics
 =================
  
 Total Used :                     CPU=        1.22      System=        0.02     Elapsed=        1.29

 Calls  Section                     ( Mean, Percentage )
 ---------------------------------------------------------------------------------------------------
     3  ><      ................      0.00    0.33             0.00    0.00             0.00    0.34
     1  INIT    ................      0.07    5.56             0.00   25.00             0.08    6.04
     1  GEOMET  ................      0.02    1.31             0.00   25.00             0.02    1.83
     1  INPUTA  ................      0.00    0.33             0.00    0.00             0.00    0.29
     1  MAINSY  ................      0.02    1.31             0.00    0.00             0.02    1.60
     1  SYMFIT  ................      0.00    0.33             0.00    0.00             0.00    0.13
     1  CORORT  ................      0.00    0.00             0.00    0.00             0.00    0.15
     1  SYMORB  ................      0.00    0.00             0.00    0.00             0.00    0.08
     1  CLSMAT  ................      0.01    0.65             0.00    0.00             0.01    0.53
     1  ORTHON  ................      0.00    0.33             0.00    0.00             0.01    0.47
     1  GENPT   ................      0.02    1.96             0.00    0.00             0.03    2.05
     1  PTBAS   ................      0.01    0.65             0.00    0.00             0.01    0.57
    15  FOCKY   ................      0.06   78.10             0.00   25.00             0.06   74.80
    15  FOCKTR  ................      0.00    0.65             0.00    0.00             0.00    1.01
    15  SDIIS   ................      0.00    2.29             0.00    0.00             0.00    3.42
     1  COREPS  ................      0.06    4.58             0.00   25.00             0.06    4.73
     1  POPAN   ................      0.00    0.33             0.00    0.00             0.01    0.51
     1  DEBYE   ................      0.00    0.33             0.00    0.00             0.00    0.19
     1  EXIT PROCEDURE .........      0.01    0.98             0.00    0.00             0.02    1.28


 Currently Open Files (EXIT00)
 ====================

 Unit    Access Format  Status   Type       Ident (file)
 -------------------------------------------------------
   3      SEQ    FORM   TRANSP  NORMAL      LOGFILE
                                          ( logfile )

 ***************************************************************************************************
 (LOGFILE)
 <Oct09-2020> <19:36:39>  DIRAC 2019  RunTime: Oct09-2020 19:36:39  Nodes: 1  Procs: 1
 <Oct09-2020> <19:36:39>  NORMAL TERMINATION
 <Oct09-2020> <19:36:39>  END
 <Oct09-2020> <19:36:39>  ADF 2019  RunTime: Oct09-2020 19:36:39  Nodes: 1  Procs: 1
 <Oct09-2020> <19:36:39>  Hydrogen (TZP)
 <Oct09-2020> <19:36:39>  RunType   : CREATE
 <Oct09-2020> <19:36:39>  Net Charge: 0 (Nuclei minus Electrons)
 <Oct09-2020> <19:36:39>  Symmetry  : ATOM
  Coordinates
    Atom         X           Y           Z   (Angstrom)
    1.H         0.000000    0.000000    0.000000
 <Oct09-2020> <19:36:39>  >>>> CORORT
 <Oct09-2020> <19:36:39>  >>>> CLSMAT
 <Oct09-2020> <19:36:39>  >>>> ORTHON
 <Oct09-2020> <19:36:39>  >>>> GENPT
 <Oct09-2020> <19:36:39>  Block Length=  64
 <Oct09-2020> <19:36:39>  >>>> PTBAS
 <Oct09-2020> <19:36:39>  >>>> CYCLE
 <Oct09-2020> <19:36:39>              |Error|         MaxErr       Wt(A-DIIS)
 <Oct09-2020> <19:36:39>      1      0.00000000      0.00000000
 <Oct09-2020> <19:36:39>      2      0.03153787      0.03011049
 <Oct09-2020> <19:36:39>      3      0.00861799      0.00834303    100.0
 <Oct09-2020> <19:36:39>      4      0.00173235      0.00171862      0.7
 <Oct09-2020> <19:36:39>      5      0.00004367      0.00003977      0.0
 <Oct09-2020> <19:36:39>      6      0.00000238      0.00000216      0.0
 <Oct09-2020> <19:36:39>      7      0.00000001      0.00000001      0.0
 <Oct09-2020> <19:36:39>  SCF converged
 <Oct09-2020> <19:36:39>      8      0.00000000      0.00000000      0.0
 <Oct09-2020> <19:36:39>  >>>> POPAN
 <Oct09-2020> <19:36:39>  >>>> DEBYE
 <Oct09-2020> <19:36:40>  NORMAL TERMINATION
 <Oct09-2020> <19:36:40>  END
 <Oct09-2020> <19:36:40>  DIRAC 2019  RunTime: Oct09-2020 19:36:40  Nodes: 1  Procs: 1
 <Oct09-2020> <19:36:40>  NORMAL TERMINATION
 <Oct09-2020> <19:36:40>  END
 <Oct09-2020> <19:36:40>  ADF 2019  RunTime: Oct09-2020 19:36:40  Nodes: 1  Procs: 1
 <Oct09-2020> <19:36:40>  Tungsten (TZP, 4d frozen)
 <Oct09-2020> <19:36:40>  RunType   : CREATE
 <Oct09-2020> <19:36:40>  Net Charge: 0 (Nuclei minus Electrons)
 <Oct09-2020> <19:36:40>  Symmetry  : ATOM
  Coordinates
    Atom         X           Y           Z   (Angstrom)
    1.W         0.000000    0.000000    0.000000
 <Oct09-2020> <19:36:40>  >>>> CORORT
 <Oct09-2020> <19:36:40>  >>>> CLSMAT
 <Oct09-2020> <19:36:40>  >>>> ORTHON
 <Oct09-2020> <19:36:40>  >>>> GENPT
 <Oct09-2020> <19:36:40>  Block Length=  73
 <Oct09-2020> <19:36:41>  >>>> PTBAS
 <Oct09-2020> <19:36:41>  >>>> CYCLE
 <Oct09-2020> <19:36:41>              |Error|         MaxErr       Wt(A-DIIS)
 <Oct09-2020> <19:36:41>      1      0.00000000      0.00000000
 <Oct09-2020> <19:36:41>      2     40.90708283      9.97740212    100.0
 <Oct09-2020> <19:36:41>      3     22.13776681      7.95655062    100.0
 <Oct09-2020> <19:36:41>      4     11.31925821      3.38837877    100.0
 <Oct09-2020> <19:36:41>      5      6.46835280      2.22297464    100.0
 <Oct09-2020> <19:36:41>      6      2.47249642      0.77035507    100.0
 <Oct09-2020> <19:36:41>      7      1.32688857      0.40987742    100.0
 <Oct09-2020> <19:36:41>      8      0.41726555      0.12310398    100.0
 <Oct09-2020> <19:36:41>      9      0.43634466      0.13597797    100.0
 <Oct09-2020> <19:36:41>     10      0.06429002      0.02168356     20.9
 <Oct09-2020> <19:36:41>     11      0.01986224      0.00661453      5.7
 <Oct09-2020> <19:36:41>     12      0.00170437      0.00055770      0.0
 <Oct09-2020> <19:36:41>     13      0.00001164      0.00000309      0.0
 <Oct09-2020> <19:36:41>     14      0.00000001      0.00000000      0.0
 <Oct09-2020> <19:36:42>  SCF converged
 <Oct09-2020> <19:36:42>     15      0.00000000      0.00000000      0.0
 <Oct09-2020> <19:36:42>  >>>> POPAN
 <Oct09-2020> <19:36:42>  >>>> DEBYE
 <Oct09-2020> <19:36:42>  NORMAL TERMINATION
 <Oct09-2020> <19:36:42>  END

 *******************************************************************************
 *                                                                             *
 *  -------------------------------------                                      *
 *   Amsterdam Density Functional  (ADF)         2019                          *
 *  -------------------------------------                                      *
 *                                               r79301 2019-11-09             *
 *                                                                             *
 *                                                                             *
 *                            =====================                            *
 *                            |                   |                            *
 *                            |     D I R A C     |                            *
 *                            |                   |                            *
 *                            =====================                            *
 *                                                                             *
 *                                                                             *
 *   Online information and documentation:  https://www.scm.com/support/       *
 *   E-mail:  support@scm.com   info@scm.com                                   *
 *                                                                             *
 *   Scientific publications using ADF results must be properly referenced     *
 *   See the User Manuals (or the web site) for recommended citations          *
 *   The terms and conditions of the End User License Agreement apply to       *
 *   the use of ADF, https://www.scm.com/license-terms/                        *
 *                                                                             *
 **********************  x86_64_linux_intel / intelmpi  ************************
 
 
 
  
 DIRAC 2019  RunTime: Oct09-2020 19:36:42  Nodes: 1  Procs: 1

 Temporary files are created in /scratch/kid_0.1390565006 (0x58465342)

1
 OXYGEN ATOM 1s CORE RELATIVISTIC, Point Nuc, A and c from li
 N J RN H ZN XION ANUC CLIGHT
 5000    4100.00000000197.36710137  8.00000000  0.00000000   15.994914  0.1370360E+03
  PH   PHI     EPS        DEL        DELRVR
  0.30  0.30     2500.00  0.00001000  0.00001000
 IDIRC  NC1  NDEBU NPRIN  IPUN IRCOR IWCOR
   1   300     0     0     0     0     1
   XALPHA      XLATTER      RNUC
  0.70000000  0.00000000  0.00000000 Point Charge
   XN   XL   XJ      XE          XZ      XDELL
  1.0  0.0  0.5      -5.000       2.000     0.00000
  2.0  0.0  0.5      -1.000       2.000     0.00000
  2.0  1.0  0.5      -1.000       2.000     0.00000
  2.0  1.0  1.5      -1.000       2.000     0.00000
 ICORP=  0  NPCL=  0  DEMP=0.00  PEPS=0.000000
 R(1)=  0.1000000E-08 D=  0.1005080E+01 RNUC=  0.0000000E+00
 converged at cycle   28  DENSITY AVERAGING    0.2400
  MAXIMUM ERROR IN R.V(R) IS   0.81125670E-05
 Q,EY,EV,EZ,ESUM,ETOT,RHO  0.800000E+01 -0.101247E+02 -0.114961E+03 -0.177573E+03 -0.405053E+02 -0.743427E+02  0.414766E-14


 DIRAC CALCULATION
1                    OXYGEN ATOM 1s CORE RELATIVISTIC, Point Nuc, A and c from libtc


 EXCHANGE COEFFICIENT=  0.7000000           TAIL CORRECTION=  0.           NUCLEAR RADIUS=  0.000E+00
0                       ORBITAL    N    L    J     ELECTRONS     EIGENVALUE                DELTA OF EIGENV.

                          1S1/2  1.0  0.0  0.5     2.000       -0.1880014E+02                 0.7264358E-06
                          2S1/2  2.0  0.0  0.5     2.000       -0.8412236E+00                 0.5932752E-05
                          2P1/2  2.0  1.0  0.5     2.000       -0.3063203E+00                 0.5998471E-05
                          2P3/2  2.0  1.0  1.5     2.000       -0.3049609E+00                 0.5986971E-05


                                        NUCLEAR CHARGE=    8.000000
                            INTEGRAL OF CHARGE DENSITY=    8.000000
                           SUM OF THE ORBITAL ENERGIES=    -40.5053
                                          TOTAL ENERGY=    -74.3427
                                        KINETIC ENERGY=     74.4552
                             NUCLEAR ATTRACTION ENERGY=   -177.5730
                             ELECTRON REPULSION ENERGY=     36.3686
                                       EXCHANGE ENERGY=     -7.5935

 *******************************************************************************

                             D I R A C   E X I T
 NORMAL TERMINATION



 =================
 Timing Statistics
 =================
  
 Total Used :                     CPU=        0.10      System=        0.00     Elapsed=        0.11

 Calls  Section                     ( Mean, Percentage )
 ---------------------------------------------------------------------------------------------------
     2  ><      ................      0.00    0.00             0.00    0.00             0.00    0.00
     1  EXIT PROCEDURE .........      0.10  100.00             0.00    0.00             0.11  100.00


 Currently Open Files (EXIT00)
 ====================

 Unit    Access Format  Status   Type       Ident (file)
 -------------------------------------------------------
   3      SEQ    FORM   TRANSP  NORMAL      LOGFILE
                                          ( logfile )
 
Create O   file=TZP-O.1s
XC
  GGA PBE
End
relativistic ZORA
Corepotentials t12.rel
End

 *******************************************************************************
 *                                                                             *
 *  -------------------------------------                                      *
 *   Amsterdam Density Functional  (ADF)         2019                          *
 *  -------------------------------------                                      *
 *                                               r79301 2019-11-09             *
 *                                                                             *
 *                                                                             *
 *                              =================                              *
 *                              |               |                              *
 *                              |     A D F     |                              *
[...]
   43.H        -3.296521    0.809408    4.772282
   44.H         1.817443   -3.601646   -2.426090
 <Oct09-2020> <20:59:47>  >>>> CORORT
 <Oct09-2020> <20:59:47>  >>>> CLSMAT
 <Oct09-2020> <20:59:47>  >>>> ORTHON
 <Oct09-2020> <20:59:47>  >>>> GENPT
 <Oct09-2020> <20:59:48>  Block Length= 128
 <Oct09-2020> <20:59:48>  >>>> PTBAS
 <Oct09-2020> <21:00:01>  combining surface points...
 <Oct09-2020> <21:00:01>  combining surface points...
 <Oct09-2020> <21:00:01>  combining surface points...
 <Oct09-2020> <21:00:01>  >>>> CYCLE
 <Oct09-2020> <21:00:11>              |Error|         MaxErr       Wt(A-DIIS)
 <Oct09-2020> <21:00:11>      1      0.26850141      0.05086615
 <Oct09-2020> <21:00:18>      2      0.25569116      0.02377792    100.0
 <Oct09-2020> <21:00:24>      3      0.11820804      0.01443970    100.0
 <Oct09-2020> <21:00:31>      4      0.24544484      0.01997035    100.0
 <Oct09-2020> <21:00:37>      5      0.09785252      0.01072301      9.8
 <Oct09-2020> <21:00:44>      6      0.07524827      0.00920749      8.3
 <Oct09-2020> <21:00:50>      7      0.02664513      0.00268344      1.7
 <Oct09-2020> <21:00:57>      8      0.01876318      0.00192251      0.9
 <Oct09-2020> <21:01:03>      9      0.00565493      0.00065566      0.0
 <Oct09-2020> <21:01:09>     10      0.00324004      0.00036461      0.0
 <Oct09-2020> <21:01:16>     11      0.00073213      0.00007771      0.0
 <Oct09-2020> <21:01:22>     12      0.00052503      0.00006758      0.0
 <Oct09-2020> <21:01:28>     13      0.00032582      0.00003076      0.0
 <Oct09-2020> <21:01:34>     14      0.00014206      0.00001138      0.0
 <Oct09-2020> <21:01:41>     15      0.00029068      0.00002998      0.0
 <Oct09-2020> <21:01:47>     16      0.00002351      0.00000264      0.0
 <Oct09-2020> <21:01:53>     17      0.00000850      0.00000070      0.0
 <Oct09-2020> <21:01:56>  SCF converged
 <Oct09-2020> <21:01:59>     18      0.00001033      0.00000098      0.0
 <Oct09-2020> <21:02:02>  >>>> TOTEN
 <Oct09-2020> <21:02:11>  >>>> POPAN
 <Oct09-2020> <21:02:11>  >>>> DEBYE
 <Oct09-2020> <21:02:12>  >>>> ENGRAD
 <Oct09-2020> <21:02:43>  current energy                              -13.77790442 Hartree
 <Oct09-2020> <21:02:43>  energy change                      -0.00002992     0.00100000    T
 <Oct09-2020> <21:02:43>  constrained gradient max            0.00143913     0.00100000    F
 <Oct09-2020> <21:02:43>  constrained gradient rms            0.00036022     0.00066667    T
 <Oct09-2020> <21:02:43>  gradient max                        0.00143913
 <Oct09-2020> <21:02:43>  gradient rms                        0.00036022
 <Oct09-2020> <21:02:43>  cart. step max                      0.01354201     0.01000000    F
 <Oct09-2020> <21:02:43>  cart. step rms                      0.00201901     0.00666667    T
  Coordinates in Geometry Cycle 28
    Atom         X           Y           Z   (Angstrom)
    1.O         0.063206   -0.157189    0.011607
    2.O         1.811534   -2.621869   -2.484166
    3.W         1.967733   -0.017553    1.462800
    4.W         1.038754    1.590127   -1.360036
    5.W        -1.941380    0.000221   -1.289788
    6.W        -0.908287    1.763281    1.404500
    7.W         0.875224   -1.645951   -1.150926
    8.O         2.305047    1.322466    0.072667
    9.O        -0.739380    1.331965   -2.073418
   10.O        -2.671498   -1.390669   -0.187371
   11.O         1.171320   -1.401604    2.524199
   12.O        -2.272112    1.271319    0.141561
   13.O         0.736494    1.260924    2.259441
   14.O         2.320033   -1.354167    0.100123
   15.O        -0.783917   -1.344092   -2.087092
   16.O        -1.740990    0.298131    2.579017
   17.O         0.045712    2.633199    0.050136
   18.O         1.590391   -0.024325   -2.152232
   19.O         0.239603   -3.092281   -0.245369
   20.O        -1.529525    3.095404    2.293650
   21.O        -3.246390    0.217963   -2.393241
   22.O         1.729696    2.840130   -2.332507
   23.O         3.449972    0.191807    2.315425
   24.O        -1.564780   -2.636267    2.322801
   25.O        -4.950602   -2.984596    0.018139
   26.W        -2.377061   -1.147310    3.485297
   27.W        -2.541363   -4.383108    3.695482
   28.W        -0.594058   -4.556425    0.929628
   29.W         0.439093   -2.793633    3.624084
   30.W        -3.469065   -2.775828    0.872068
   31.O        -3.093735   -2.768680    4.487124
   32.O        -1.547605   -5.426140    2.284178
   33.O         0.770295   -4.063632    2.192690
   34.O        -0.718346   -1.449453    4.421911
   35.O        -3.822261   -1.439580    2.235074
   36.O        -2.238524   -4.054042    0.074330
   37.O        -0.763490   -4.125667    4.408054
   38.O        -3.806858   -4.116056    2.261746
   39.O         1.743533   -3.013283    4.727815
   40.O         0.027648   -5.888979    0.041499
   41.O        -3.232352   -5.633195    4.667725
   42.O        -3.312012   -0.169921    4.819429
   43.H        -3.287233    0.809937    4.779205
   44.H         1.803901   -3.601597   -2.435361
 <Oct09-2020> <21:02:43>  >>>> CORORT
 <Oct09-2020> <21:02:44>  >>>> CLSMAT
 <Oct09-2020> <21:02:44>  >>>> ORTHON
 <Oct09-2020> <21:02:44>  >>>> GENPT
 <Oct09-2020> <21:02:44>  Block Length= 128
 <Oct09-2020> <21:02:44>  >>>> PTBAS
 <Oct09-2020> <21:02:57>  combining surface points...
 <Oct09-2020> <21:02:57>  combining surface points...
 <Oct09-2020> <21:02:57>  combining surface points...
 <Oct09-2020> <21:02:57>  >>>> CYCLE
 <Oct09-2020> <21:03:07>              |Error|         MaxErr       Wt(A-DIIS)
 <Oct09-2020> <21:03:07>      1      0.22117509      0.03637217
 <Oct09-2020> <21:03:13>      2      0.25545122      0.02375107    100.0
 <Oct09-2020> <21:03:21>      3      0.11509476      0.01466134    100.0
 <Oct09-2020> <21:03:27>      4      0.24196047      0.01951988    100.0
 <Oct09-2020> <21:03:34>      5      0.10422527      0.01167503     10.8
 <Oct09-2020> <21:03:40>      6      0.07777030      0.01020423      9.3
 <Oct09-2020> <21:03:47>      7      0.02771419      0.00300429      2.0
 <Oct09-2020> <21:03:53>      8      0.01844557      0.00167633      0.7
 <Oct09-2020> <21:03:59>      9      0.00564398      0.00062543      0.0
 <Oct09-2020> <21:04:06>     10      0.00339071      0.00034555      0.0
 <Oct09-2020> <21:04:12>     11      0.00081542      0.00008600      0.0
 <Oct09-2020> <21:04:18>     12      0.00055578      0.00006329      0.0
 <Oct09-2020> <21:04:24>     13      0.00029518      0.00002713      0.0
 <Oct09-2020> <21:04:31>     14      0.00012908      0.00001439      0.0
 <Oct09-2020> <21:04:37>     15      0.00024684      0.00002328      0.0
 <Oct09-2020> <21:04:43>     16      0.00002447      0.00000271      0.0
 <Oct09-2020> <21:04:49>     17      0.00000819      0.00000071      0.0
 <Oct09-2020> <21:04:52>  SCF converged
 <Oct09-2020> <21:04:55>     18      0.00000909      0.00000101      0.0
 <Oct09-2020> <21:04:59>  >>>> TOTEN
 <Oct09-2020> <21:05:08>  >>>> POPAN
 <Oct09-2020> <21:05:08>  >>>> DEBYE
 <Oct09-2020> <21:05:08>  >>>> ENGRAD
 <Oct09-2020> <21:05:39>  current energy                              -13.77791303 Hartree
 <Oct09-2020> <21:05:39>  energy change                      -0.00000861     0.00100000    T
 <Oct09-2020> <21:05:39>  constrained gradient max            0.00146908     0.00100000    F
 <Oct09-2020> <21:05:39>  constrained gradient rms            0.00033609     0.00066667    T
 <Oct09-2020> <21:05:39>  gradient max                        0.00146908
 <Oct09-2020> <21:05:39>  gradient rms                        0.00033609
 <Oct09-2020> <21:05:39>  cart. step max                      0.00989917     0.01000000    T
 <Oct09-2020> <21:05:39>  cart. step rms                      0.00167370     0.00666667    T
  Coordinates in Geometry Cycle 29
    Atom         X           Y           Z   (Angstrom)
    1.O         0.063454   -0.156967    0.012465
    2.O         1.811138   -2.622251   -2.484679
    3.W         1.967722   -0.017056    1.463415
    4.W         1.038914    1.589812   -1.359756
    5.W        -1.940010   -0.001017   -1.290021
    6.W        -0.908607    1.762418    1.404482
    7.W         0.877371   -1.645620   -1.150468
    8.O         2.305608    1.322734    0.072970
    9.O        -0.738628    1.331824   -2.074011
   10.O        -2.670852   -1.390272   -0.185912
   11.O         1.171228   -1.401843    2.523426
   12.O        -2.271977    1.270940    0.140888
   13.O         0.736556    1.260756    2.260166
   14.O         2.320940   -1.354054    0.100798
   15.O        -0.783105   -1.345113   -2.086161
   16.O        -1.740850    0.296902    2.577846
   17.O         0.045667    2.632977    0.051005
   18.O         1.591496   -0.025194   -2.152027
   19.O         0.239583   -3.090692   -0.243831
   20.O        -1.531068    3.093842    2.293938
   21.O        -3.245233    0.215274   -2.393560
   22.O         1.730287    2.839117   -2.332583
   23.O         3.449079    0.192349    2.317614
   24.O        -1.565063   -2.636439    2.322334
   25.O        -4.948860   -2.985523    0.015977
   26.W        -2.379906   -1.147382    3.484887
   27.W        -2.541049   -4.382928    3.695577
   28.W        -0.593146   -4.555657    0.930079
   29.W         0.437534   -2.791997    3.624393
   30.W        -3.468158   -2.776736    0.871477
   31.O        -3.094122   -2.768171    4.487051
   32.O        -1.547403   -5.426006    2.283184
   33.O         0.770255   -4.063073    2.193501
   34.O        -0.719686   -1.448698    4.420820
   35.O        -3.822816   -1.439877    2.235036
   36.O        -2.237972   -4.053943    0.073647
   37.O        -0.763934   -4.125811    4.408401
   38.O        -3.806807   -4.116099    2.261614
   39.O         1.741530   -3.010220    4.729054
   40.O         0.030077   -5.887115    0.041201
   41.O        -3.232512   -5.632582    4.667935
   42.O        -3.311985   -0.169217    4.819251
   43.H        -3.282523    0.810658    4.785736
   44.H         1.794196   -3.602263   -2.445260
 <Oct09-2020> <21:05:39>  >>>> CORORT
 <Oct09-2020> <21:05:40>  >>>> CLSMAT
 <Oct09-2020> <21:05:40>  >>>> ORTHON
 <Oct09-2020> <21:05:40>  >>>> GENPT
 <Oct09-2020> <21:05:40>  Block Length= 128
 <Oct09-2020> <21:05:41>  >>>> PTBAS
 <Oct09-2020> <21:05:54>  combining surface points...
 <Oct09-2020> <21:05:54>  combining surface points...
 <Oct09-2020> <21:05:54>  combining surface points...
 <Oct09-2020> <21:05:54>  >>>> CYCLE
 <Oct09-2020> <21:06:04>              |Error|         MaxErr       Wt(A-DIIS)
 <Oct09-2020> <21:06:04>      1      0.24156763      0.04248326
 <Oct09-2020> <21:06:10>      2      0.25418582      0.02369795    100.0
 <Oct09-2020> <21:06:17>      3      0.10996727      0.01502212    100.0
 <Oct09-2020> <21:06:23>      4      0.21467203      0.01723702    100.0
 <Oct09-2020> <21:06:30>      5      0.13087613      0.01300830    100.0
 <Oct09-2020> <21:06:36>      6      0.18422518      0.02360214    100.0
 <Oct09-2020> <21:06:42>      7      0.10736529      0.00953966      8.6
 <Oct09-2020> <21:06:49>      8      0.02715084      0.00220918      1.2
 <Oct09-2020> <21:06:55>      9      0.01057381      0.00099946      0.0
 <Oct09-2020> <21:07:02>     10      0.00461412      0.00058612      0.0
 <Oct09-2020> <21:07:08>     11      0.00205258      0.00028654      0.0
 <Oct09-2020> <21:07:14>     12      0.00065026      0.00006057      0.0
 <Oct09-2020> <21:07:20>     13      0.00032700      0.00003201      0.0
 <Oct09-2020> <21:07:27>     14      0.00037097      0.00004129      0.0
 <Oct09-2020> <21:07:33>     15      0.00007543      0.00000742      0.0
 <Oct09-2020> <21:07:39>     16      0.00002744      0.00000343      0.0
 <Oct09-2020> <21:07:45>     17      0.00002320      0.00000189      0.0
 <Oct09-2020> <21:07:51>     18      0.00001311      0.00000126      0.0
 <Oct09-2020> <21:07:58>     19      0.00002923      0.00000271      0.0
 <Oct09-2020> <21:08:04>     20      0.00000724      0.00000068      0.0
 <Oct09-2020> <21:08:06>  SCF converged
 <Oct09-2020> <21:08:10>     21      0.00000471      0.00000046      0.0
 <Oct09-2020> <21:08:13>  >>>> TOTEN
 <Oct09-2020> <21:08:22>  >>>> POPAN
 <Oct09-2020> <21:08:22>  >>>> DEBYE
 <Oct09-2020> <21:08:22>  >>>> ENGRAD
 <Oct09-2020> <21:08:53>  current energy                              -13.77792086 Hartree
 <Oct09-2020> <21:08:53>  energy change                      -0.00000783     0.00100000    T
 <Oct09-2020> <21:08:53>  constrained gradient max            0.00093525     0.00100000    T
 <Oct09-2020> <21:08:53>  constrained gradient rms            0.00022991     0.00066667    T
 <Oct09-2020> <21:08:53>  gradient max                        0.00093525
 <Oct09-2020> <21:08:53>  gradient rms                        0.00022991
 <Oct09-2020> <21:08:53>  cart. step max                      0.00311845     0.01000000    T
 <Oct09-2020> <21:08:53>  cart. step rms                      0.00086639     0.00666667    T
 <Oct09-2020> <21:08:53>  GEOMETRY CONVERGED
 <Oct09-2020> <21:08:53>  Calculating Energy Terms for Final Geometry
  Coordinates in Geometry Cycle 29
    Atom         X           Y           Z   (Angstrom)
    1.O         0.063454   -0.156967    0.012465
    2.O         1.811138   -2.622251   -2.484679
    3.W         1.967722   -0.017056    1.463415
    4.W         1.038914    1.589812   -1.359756
    5.W        -1.940010   -0.001017   -1.290021
    6.W        -0.908607    1.762418    1.404482
    7.W         0.877371   -1.645620   -1.150468
    8.O         2.305608    1.322734    0.072970
    9.O        -0.738628    1.331824   -2.074011
   10.O        -2.670852   -1.390272   -0.185912
   11.O         1.171228   -1.401843    2.523426
   12.O        -2.271977    1.270940    0.140888
   13.O         0.736556    1.260756    2.260166
   14.O         2.320940   -1.354054    0.100798
   15.O        -0.783105   -1.345113   -2.086161
   16.O        -1.740850    0.296902    2.577846
   17.O         0.045667    2.632977    0.051005
   18.O         1.591496   -0.025194   -2.152027
   19.O         0.239583   -3.090692   -0.243831
   20.O        -1.531068    3.093842    2.293938
   21.O        -3.245233    0.215274   -2.393560
   22.O         1.730287    2.839117   -2.332583
   23.O         3.449079    0.192349    2.317614
   24.O        -1.565063   -2.636439    2.322334
   25.O        -4.948860   -2.985523    0.015977
   26.W        -2.379906   -1.147382    3.484887
   27.W        -2.541049   -4.382928    3.695577
   28.W        -0.593146   -4.555657    0.930079
   29.W         0.437534   -2.791997    3.624393
   30.W        -3.468158   -2.776736    0.871477
   31.O        -3.094122   -2.768171    4.487051
   32.O        -1.547403   -5.426006    2.283184
   33.O         0.770255   -4.063073    2.193501
   34.O        -0.719686   -1.448698    4.420820
   35.O        -3.822816   -1.439877    2.235036
   36.O        -2.237972   -4.053943    0.073647
   37.O        -0.763934   -4.125811    4.408401
   38.O        -3.806807   -4.116099    2.261614
   39.O         1.741530   -3.010220    4.729054
   40.O         0.030077   -5.887115    0.041201
   41.O        -3.232512   -5.632582    4.667935
   42.O        -3.311985   -0.169217    4.819251
   43.H        -3.282523    0.810658    4.785736
   44.H         1.794196   -3.602263   -2.445260
 <Oct09-2020> <21:08:53>  >>>> CORORT
 <Oct09-2020> <21:08:54>  >>>> CLSMAT
 <Oct09-2020> <21:08:54>  >>>> ORTHON
 <Oct09-2020> <21:08:54>  >>>> GENPT
 <Oct09-2020> <21:08:54>  Block Length= 128
 <Oct09-2020> <21:08:55>  >>>> PTBAS
 <Oct09-2020> <21:09:08>  combining surface points...
 <Oct09-2020> <21:09:08>  combining surface points...
 <Oct09-2020> <21:09:08>  combining surface points...
 <Oct09-2020> <21:09:08>  >>>> CYCLE
 <Oct09-2020> <21:09:17>              |Error|         MaxErr       Wt(A-DIIS)
 <Oct09-2020> <21:09:17>      1      0.09655331      0.02647255
 <Oct09-2020> <21:09:24>      2      0.25446501      0.02414164    100.0
 <Oct09-2020> <21:09:31>      3      0.11349690      0.02576387    100.0
 <Oct09-2020> <21:09:37>      4      0.23495412      0.02418208    100.0
 <Oct09-2020> <21:09:44>      5      0.11059966      0.01102764     10.1
 <Oct09-2020> <21:09:50>      6      0.07802707      0.01140270     10.1
 <Oct09-2020> <21:09:57>      7      0.02970169      0.00293907      2.0
 <Oct09-2020> <21:10:03>      8      0.01854016      0.00193459      0.9
 <Oct09-2020> <21:10:09>      9      0.00572663      0.00059412      0.0
 <Oct09-2020> <21:10:16>     10      0.00337702      0.00035019      0.0
 <Oct09-2020> <21:10:22>     11      0.00082241      0.00007899      0.0
 <Oct09-2020> <21:10:28>     12      0.00055278      0.00005882      0.0
 <Oct09-2020> <21:10:35>     13      0.00029123      0.00002720      0.0
 <Oct09-2020> <21:10:41>     14      0.00012983      0.00001381      0.0
 <Oct09-2020> <21:10:47>     15      0.00022313      0.00002985      0.0
 <Oct09-2020> <21:10:53>     16      0.00002614      0.00000258      0.0
 <Oct09-2020> <21:10:59>     17      0.00000940      0.00000108      0.0
 <Oct09-2020> <21:11:06>     18      0.00000977      0.00000105      0.0
 <Oct09-2020> <21:11:12>     19      0.00001045      0.00000114      0.0
 <Oct09-2020> <21:11:18>     20      0.00000509      0.00000049      0.0
 <Oct09-2020> <21:11:20>  SCF converged
 <Oct09-2020> <21:11:24>     21      0.00000165      0.00000019      0.0
 <Oct09-2020> <21:11:29>  >>>> TOTEN
 <Oct09-2020> <21:11:54>  QTAIM: determining topology...
 <Oct09-2020> <21:12:15>  >>>> POPAN
 <Oct09-2020> <21:12:15>  >>>> DEBYE
 <Oct09-2020> <21:12:15>  >>>> AMETS
 <Oct09-2020> <21:12:16>  >>>> POPUL
 <Oct09-2020> <21:12:16>   Bond Energy         -13.77792086 a.u.
 <Oct09-2020> <21:12:16>   Bond Energy        -374.91630239 eV
 <Oct09-2020> <21:12:16>   Bond Energy       -8645.78       kcal/mol
 <Oct09-2020> <21:12:16>  >>>> ENHESS
 <Oct09-2020> <21:13:26>  === NUCLEUS:     1
 <Oct09-2020> <21:21:29>  === NUCLEUS:     2
 <Oct09-2020> <21:29:06>  === NUCLEUS:     3
 <Oct09-2020> <21:36:52>  === NUCLEUS:     4
 <Oct09-2020> <21:44:37>  === NUCLEUS:     5
 <Oct09-2020> <21:52:23>  === NUCLEUS:     6
 <Oct09-2020> <22:00:08>  === NUCLEUS:     7
 <Oct09-2020> <22:07:44>  === NUCLEUS:     8
 <Oct09-2020> <22:15:27>  === NUCLEUS:     9
 <Oct09-2020> <22:23:01>  === NUCLEUS:    10
 <Oct09-2020> <22:30:46>  === NUCLEUS:    11
 <Oct09-2020> <22:38:23>  === NUCLEUS:    12
 <Oct09-2020> <22:45:59>  === NUCLEUS:    13
 <Oct09-2020> <22:53:45>  === NUCLEUS:    14
 <Oct09-2020> <23:01:22>  === NUCLEUS:    15
 <Oct09-2020> <23:08:51>  === NUCLEUS:    16
 <Oct09-2020> <23:16:20>  === NUCLEUS:    17
 <Oct09-2020> <23:23:50>  === NUCLEUS:    18
 <Oct09-2020> <23:31:22>  === NUCLEUS:    19
 <Oct09-2020> <23:39:04>  === NUCLEUS:    20
 <Oct09-2020> <23:46:36>  === NUCLEUS:    21
 <Oct09-2020> <23:54:26>  === NUCLEUS:    22
 <Oct10-2020> <00:02:07>  === NUCLEUS:    23
 <Oct10-2020> <00:09:48>  === NUCLEUS:    24
 <Oct10-2020> <00:17:40>  === NUCLEUS:    25
 <Oct10-2020> <00:25:21>  === NUCLEUS:    26
 <Oct10-2020> <00:33:12>  === NUCLEUS:    27
 <Oct10-2020> <00:41:03>  === NUCLEUS:    28
 <Oct10-2020> <00:48:54>  === NUCLEUS:    29
 <Oct10-2020> <00:56:36>  === NUCLEUS:    30
 <Oct10-2020> <01:04:08>  === NUCLEUS:    31
 <Oct10-2020> <01:11:40>  === NUCLEUS:    32
 <Oct10-2020> <01:19:21>  === NUCLEUS:    33
 <Oct10-2020> <01:27:32>  === NUCLEUS:    34
 <Oct10-2020> <01:35:51>  === NUCLEUS:    35
 <Oct10-2020> <01:44:02>  === NUCLEUS:    36
 <Oct10-2020> <01:51:55>  === NUCLEUS:    37
 <Oct10-2020> <01:59:57>  === NUCLEUS:    38
 <Oct10-2020> <02:07:58>  === NUCLEUS:    39
 <Oct10-2020> <02:16:18>  === NUCLEUS:    40
 <Oct10-2020> <02:24:19>  === NUCLEUS:    41
 <Oct10-2020> <02:32:31>  === NUCLEUS:    42
 <Oct10-2020> <02:40:42>  === NUCLEUS:    43
 <Oct10-2020> <02:47:54>  === NUCLEUS:    44
 <Oct10-2020> <02:54:56>  >>>> CALC_HESS_PMAT
 <Oct10-2020> <02:58:00>  >>>> CALC_HESS_WMAT
 <Oct10-2020> <02:58:30>  NORMAL TERMINATION
 <Oct10-2020> <02:58:31>  END
