 *******************************************************************************
 *                                                                             *
 *  -------------------------------------                                      *
 *   Amsterdam Density Functional  (ADF)         2019                          *
 *  -------------------------------------                                      *
 *                                               r79301 2019-11-09             *
 *                                                                             *
 *                                                                             *
 *                            =====================                            *
 *                            |                   |                            *
 *                            |     D I R A C     |                            *
 *                            |                   |                            *
 *                            =====================                            *
 *                                                                             *
 *                                                                             *
 *   Online information and documentation:  https://www.scm.com/support/       *
 *   E-mail:  support@scm.com   info@scm.com                                   *
 *                                                                             *
 *   Scientific publications using ADF results must be properly referenced     *
 *   See the User Manuals (or the web site) for recommended citations          *
 *   The terms and conditions of the End User License Agreement apply to       *
 *   the use of ADF, https://www.scm.com/license-terms/                        *
 *                                                                             *
 **********************  x86_64_linux_intel / intelmpi  ************************
 
  
 DIRAC 2019  RunTime: Dec11-2023 10:41:41  Nodes: 1  Procs: 1

 Temporary files are created in /scratch/kid_0.286491896 (0x58465342)

1
 HYDROGEN ATOM RELATIVISTIC, Point Nuc, A and c from libtc   
 N J RN H ZN XION ANUC CLIGHT
 5000    1100.00000000197.36710137  1.00000000  0.00000000    1.007825  0.1370360E+03
  PH   PHI     EPS        DEL        DELRVR
  0.30  0.30     2500.00  0.00001000  0.00001000
 IDIRC  NC1  NDEBU NPRIN  IPUN IRCOR IWCOR
   1   300     0     0     0     0     0
   XALPHA      XLATTER      RNUC
  0.70000000  0.00000000  0.00000000 Point Charge
   XN   XL   XJ      XE          XZ      XDELL
  1.0  0.0  0.5      -1.000       1.000     0.00000
 ICORP=  0  NPCL=  0  DEMP=0.00  PEPS=0.000000
 R(1)=  0.1000000E-08 D=  0.1005080E+01 RNUC=  0.0000000E+00
 converged at cycle   32  DENSITY AVERAGING    0.2400
  MAXIMUM ERROR IN R.V(R) IS   0.79874357E-05
 Q,EY,EV,EZ,ESUM,ETOT,RHO  0.100000E+01 -0.266614E+00 -0.619969E+00 -0.910779E+00 -0.203940E+00 -0.415998E+00  0.337036E-17


 DIRAC CALCULATION
1                    HYDROGEN ATOM RELATIVISTIC, Point Nuc, A and c from libtc


 EXCHANGE COEFFICIENT=  0.7000000           TAIL CORRECTION=  0.           NUCLEAR RADIUS=  0.000E+00
0                       ORBITAL    N    L    J     ELECTRONS     EIGENVALUE                DELTA OF EIGENV.

                          1S1/2  1.0  0.0  0.5     1.000       -0.2039397E+00                 0.2720093E-06


                                        NUCLEAR CHARGE=    1.000000
                            INTEGRAL OF CHARGE DENSITY=    1.000000
                           SUM OF THE ORBITAL ENERGIES=     -0.2039
                                          TOTAL ENERGY=     -0.4160
                                        KINETIC ENERGY=      0.4160
                             NUCLEAR ATTRACTION ENERGY=     -0.9108
                             ELECTRON REPULSION ENERGY=      0.2787
                                       EXCHANGE ENERGY=     -0.2000

 *******************************************************************************

                             D I R A C   E X I T
 NORMAL TERMINATION



 =================
 Timing Statistics
 =================
  
 Total Used :                     CPU=        0.05      System=        0.01     Elapsed=        0.08

 Calls  Section                     ( Mean, Percentage )
 ---------------------------------------------------------------------------------------------------
     2  ><      ................      0.00    0.00             0.00    0.00             0.00    0.01
     1  EXIT PROCEDURE .........      0.05  100.00             0.01  100.00             0.08   99.99


 Currently Open Files (EXIT00)
 ====================

 Unit    Access Format  Status   Type       Ident (file)
 -------------------------------------------------------
   3      SEQ    FORM   TRANSP  NORMAL      LOGFILE
                                          ( logfile )
 
Create H   file=TZP-H
XC
  GGA PBE
End
relativistic ZORA
Corepotentials t12.rel
End

 *******************************************************************************
 *                                                                             *
 *  -------------------------------------                                      *
 *   Amsterdam Density Functional  (ADF)         2019                          *
 *  -------------------------------------                                      *
 *                                               r79301 2019-11-09             *
 *                                                                             *
 *                                                                             *
 *                              =================                              *
 *                              |               |                              *
 *                              |     A D F     |                              *
 *                              |               |                              *
 *                              =================                              *
 *                                                                             *
 *                                                                             *
 *   Online information and documentation:  https://www.scm.com/support/       *
 *   E-mail:  support@scm.com   info@scm.com                                   *
 *                                                                             *
 *   Scientific publications using ADF results must be properly referenced     *
 *   See the User Manuals (or the web site) for recommended citations          *
 *   The terms and conditions of the End User License Agreement apply to       *
 *   the use of ADF, https://www.scm.com/license-terms/                        *
 *                                                                             *
 **********************  x86_64_linux_intel / intelmpi  ************************
 
  
 ADF 2019  RunTime: Dec11-2023 10:41:43  Nodes: 1  Procs: 1

 Temporary files are created in /scratch/kid_0.1833717930 (0x58465342)

 Hydrogen (TZP)



 ===========================
 A T T A C H E D   F I L E S
 ===========================
  
 CREATE - Data File:    TZP-H
                        Hydrogen (TZP)
 Core Potentials:
         file : t12.rel



 ===============================
 M O D E L   P A R A M E T E R S
 ===============================
  
 DENSITY FUNCTIONAL POTENTIAL (scf)
    LDA:                               PW92                                    == Not Default ==
    Gradient Corrections:              PBEc PBEx                               == Not Default ==

 SPIN  (restricted / unrestr.)
    Molecule:                          Restricted                               

 OTHER ASPECTS
    Relativistic Corrections:          scalar (ZORA,MAPA)                      == Not Default ==

    Nuclear Charge Density Model:      Point Charge Nuclei                      
    Core Treatment:                    Frozen Orbital(s)                        

    Hyperfine or Zeeman Interaction:   ---                                      



 =====================================
 S Y M M E T R Y ,   E L E C T R O N S
 =====================================
  
 Symmetry: ATOM

 Irreducible Representations, including subspecies
 -------------------------------------------------
 S
 P:x  P:y  P:z
 D:z2  D:x2-y2  D:xy  D:xz  D:yz
 F:z3  F:z  F:xyz  F:z2x  F:z2y  F:x  F:y


 Configuration of Valence Electrons
 ==================================

          Occupation Numbers
          -------------------------------------------------
 S        1
 P        0
 D        0
 F        0
          -------------------------------------------------

 Total:   1

 Net Charge: 0 (Nuclei minus Electrons)

 Preset values for MO occupations will be applied through SCF cycle no. 1000000
 Thereafter, the program will assign electrons to MOs that are spatially
 similar to the occupied MOs in a "reference" cycle ("KeepOrbitals").
 The reference cycle is always the PREVIOUS cycle: it will evolve with
 the SCF procedure.



 ================================
 (Slater-type)  F U N C T I O N S  ***  (Basis and Fit)  ***
 ================================
  

 Atom Type    1  (H)
 ==============

 Valence Basis Sets:   4
 -----------------------
   1 S    0.690000
   1 S    0.920000
   1 S    1.580000
   2 P    1.250000


 BAS: List of all Elementary Cartesian Basis Functions
 =====================================================

 The numbering in the list below (to the right of the function characteristics) is referred
 to in print-outs of MO eigenvectors and Mulliken populations in the BAS representation
 (as contrasted to the SFO representation).

 Notes:
 1. The functions are characterized by a polynomial prefactor (powers of x,y,z and r) and
    an exponential decay factor alpha.
 2. Since the basis sets are specific for an atom TYPE, the individual functions occur on
    all atoms of that type.
 3. The word 'Core' in the left margin signals that it is a Core Function (CF) : not a
    degree of freedom in the valence set, but only used to ensure orthogonalization of
    the other valence basis functions on the frozen Core Orbitals.


 (power of) X  Y  Z  R     Alpha  on Atom
            ==========     =====     ==========

 H                                    1
                                  ---------------------------------------------------------------------------
            0  0  0  0     0.690      1
            0  0  0  0     0.920      2
            0  0  0  0     1.580      3
            1  0  0  0     1.250      4
            0  1  0  0     1.250      5
            0  0  1  0     1.250      6

 Total number of charge fitting functions (nprimf)        50
 Total number of Cartesian basis functions (naos)          6
 Total number of Cartesian core functions  (ncos)          0



 BAS: List of all Elementary Cartesian Basis Functions
 =====================================================

 The numbering in the list below (to the right of the function characteristics) is referred
 to in print-outs of MO eigenvectors and Mulliken populations in the BAS representation
 (as contrasted to the SFO representation).

 Notes:
 1. The functions are characterized by a polynomial prefactor (powers of x,y,z and r) and
    an exponential decay factor alpha.
 2. Since the basis sets are specific for an atom TYPE, the individual functions occur on
    all atoms of that type.
 3. The word 'Core' in the left margin signals that it is a Core Function (CF) : not a
    degree of freedom in the valence set, but only used to ensure orthogonalization of
    the other valence basis functions on the frozen Core Orbitals.


 (power of) X  Y  Z  R     Alpha  on Atom
            ==========     =====     ==========

 H                                    1
                                  ---------------------------------------------------------------------------
            0  0  0  0     0.690      1
            0  0  0  0     0.920      2
            0  0  0  0     1.580      3
            1  0  0  0     1.250      4
            0  1  0  0     1.250      5
            0  0  1  0     1.250      6
1
 ***************************************************************************************************



                                              ***********************
                                              *  T E C H N I C A L  *
                                              ***********************
  



 =============================================================
 P A R A L L E L I Z A T I O N  and  V E C T O R I Z A T I O N
 =============================================================
  
 Nr of parallel processes:                                1
 Maximum vector length in NumInt loops:                 128



 =====================
 S C F   U P D A T E S
 =====================
  
 Max. nr. of cycles:                               300
 Convergence criterion:                              0.0000000100
   secondary criterion:                              0.0000000100

 Mix parameter (when DIIS does not apply):           0.2000000000
 Special mix parameter for the first cycle:          1.0000000000
 Mixed ADIIS+SDIIS will be used                  
    Max number of expansion vectors:                10
    Pure ADIIS when Max([F,P]) is above              0.1000000000
    Pure SDIIS when Max([F,P]) is below              0.0010000000
 Automatic ElectronSmearing (in case of problematic SCF convergence) disabled



 =================
 P R E C I S I O N  ***  (General: NumInt, NeglectFunctionTails, ...)  ***
 =================
  

 NumInt:           Target precision:                12.0000000000
 -------           Initial precision:               10.0000000000
                   Min. precision (optimization):   10.0000000000

 Neglect Functions:          Basis functions:        0.1000000000E-13
 ------------------          Fit functions:          0.1000000000E-13



 ===========================
 L I N E A R   S C A L I N G
 ===========================
  

 Cut-off radii density fit:                        0.1000000000E-97
 Overlap cut-off criterion AO matrix elements:     0.1000000000E-97
 Cut-offs for Coulomb potential and fitted density:0.1000000000E-97
 Cut-off criterion for Coulomb multipole terms:    0.1000000000E-97
 Progressive Convergence parameter:                 0.000000000    
1
 ***************************************************************************************************



                                            ***************************
                                            *  C O M P U T A T I O N  *
                                            ***************************
  

 Number of elements of the density matrix on this node (used, total):        21        21



 ===========================================
 Numerical Integration : Fuzzy Cells (Becke)
 ===========================================
  
 Becke grid quality: VERYGOOD       
  
 Lebedev angular grid order:             min:  13 max:  41
 Nr. of radial points:                   min:  64 max:  64

 Total nr. of points:         64
 Nr. of blocks:                1
 Block length:                64
 Nr. of dummy points:          0


 Test of Precision of the Numerical Integration Grid
 ===================================================

 Integral of the Total Core Density:                   0.00000000000000



 ========================
 Density Fitting (zlmFit)
 ========================
  
 ZlmFit Fit Quality: VERYGOOD       
  
 Max L-expansion:                        min:   0 max:   0
 Nr. of radial interpolation points:     min: 120 max: 120



 =====
 S C F  ***  ScaSCF  ***
 =====
  

 CYCLE    1
 SCF Error: norm([F,P])=      0.000000000000, max([F,P])=      0.000000000000
 orbitals (Q,E):
 ---------------
 S :1...3            ( 1.00    -0.5000)  ( 0.00    -0.0900)  ( 0.00     1.2936)
 P :1...1            ( 0.00     0.1562)

 CYCLE    2
 SCF Error: norm([F,P])=      0.031537872292, max([F,P])=      0.030110494752
 orbitals (Q,E):
 ---------------
 S :1...2            ( 1.00    -0.2218)  ( 0.00     0.1019)
 P :1...1            ( 0.00     0.4189)

 CYCLE    3
  SDIIS (wt  0.000):  0.1996  0.8004
 A-DIIS (wt  1.000):  0.0000  1.0000
  DIIS coefficients:  0.0000  1.0000
 SCF Error: norm([F,P])=      0.008617989401, max([F,P])=      0.008343029399
 orbitals (Q,E):
 ---------------
 S :1...2            ( 1.00    -0.2422)  ( 0.00     0.0889)
 P :1...1            ( 0.00     0.4024)

 CYCLE    4
  SDIIS (wt  0.993):  0.1666  0.8334
 A-DIIS (wt  0.007):  0.0000  1.0000
  DIIS coefficients:  0.1654  0.8346
 SCF Error: norm([F,P])=      0.001732350026, max([F,P])=      0.001718616814
 orbitals (Q,E):
 ---------------
 S :1...2            ( 1.00    -0.2385)  ( 0.00     0.0908)
 P :1...1            ( 0.00     0.4054)

 CYCLE    5
  SDIIS (wt  1.000):  0.0236  0.9764
  DIIS coefficients:  0.0236  0.9764
 SCF Error: norm([F,P])=      0.000043673449, max([F,P])=      0.000039769875
 orbitals (Q,E):
 ---------------
 S :1...2            ( 1.00    -0.2386)  ( 0.00     0.0908)
 P :1...1            ( 0.00     0.4054)

 CYCLE    6
  SDIIS (wt  1.000): -0.0577  1.0577
  DIIS coefficients: -0.0577  1.0577
 SCF Error: norm([F,P])=      0.000002383805, max([F,P])=      0.000002158128
 orbitals (Q,E):
 ---------------
 S :1...2            ( 1.00    -0.2386)  ( 0.00     0.0908)
 P :1...1            ( 0.00     0.4054)

 CYCLE    7
  SDIIS (wt  1.000): -0.0032  1.0032
  DIIS coefficients: -0.0032  1.0032
 SCF Error: norm([F,P])=      0.000000007721, max([F,P])=      0.000000007228
 orbitals (Q,E):
 ---------------
 S :1...2            ( 1.00    -0.2386)  ( 0.00     0.0908)
 P :1...1            ( 0.00     0.4054)

 SCF CONVERGED

 CYCLE    8
1
 ***************************************************************************************************



                                                *******************
                                                *  R E S U L T S  *
                                                *******************
  
 *** Using FIT density in Focky
  SDIIS (wt  1.000):  0.0192  0.9808
  DIIS coefficients:  0.0192  0.9808
 SCF Error: norm([F,P])=      0.000000000151, max([F,P])=      0.000000000141

 Scaled ZORA Orbital Energies, per Irrep and Spin:
 =================================================
                        Occup              E (au)              E (eV)       Diff (eV) with prev. cycle
                        -----      --------------------        ------       --------------------------
 S
               1        1.000     -0.23861775226993E+00        -6.493               7.43E-09
               2        0.000      0.90791701709251E-01         2.471
               3        0.000      0.15217530108908E+01        41.409
 P
               1        0.000      0.40537978060393E+00        11.031


 Partially Occupied:
               1 S                -0.23861775226993E+00
  
 LUMO :        2 S                 0.90791701709251E-01
  


 Orbital Energies, all Irreps
 ========================================

 Irrep        no.  (spin)   Occup              E (au)                E (eV)
 ---------------------------------------------------------------------------
 S             1             1.00       -0.23861775226993E+00        -6.4931
 S             2             0.00        0.90791701709251E-01         2.4706
 P             1             0.00        0.40537978060393E+00        11.0309
 S             3             0.00        0.15217530108908E+01        41.4090


 All Electron Calculation, thus no Orbital Energies of the Core Orbitals are calculated



 =======================================
 M U L L I K E N   P O P U L A T I O N S
 =======================================
  
 The survey below gives for each atom:
 a) the total charge (Z minus electrons)
 b) the net spin polarization (nr of electrons spin-A minus spin-B)
 c) for each spin the atomic electron valence density (integrated) per L-value.

 Atom              Charge    Spin density          S         P         D         F
 ----              ------    ------------       ------    ------    ------    ------
 1 H              -0.0000                       1.0000    0.0000    0.0000    0.0000

 Populations of individual BAS functions
 ----------------------------------------
 1 H            0.2104  0.6788  0.1107  0.0000  0.0000  0.0000

 Gross Charges per Atom (Z minus electrons)
 ==========================================
            -0.0000
 Net Total: -0.00000000



 =======================================================================
 Electrostatic potential at the Nuclei due to electrons and other nuclei
 =======================================================================
  
         Atom                  Potential
         ----                  ---------
     1)   H                   0.94468022
 
 
 ========================
 No memory problems found
 ========================
 
 Maximum number of active allocate calls:         306
 
 *******************************************************************************

                             A D F   E X I T
 NORMAL TERMINATION



 =================
 Timing Statistics
 =================
  
 Total Used :                     CPU=        0.36      System=        0.02     Elapsed=        1.14

 Calls  Section                     ( Mean, Percentage )
 ---------------------------------------------------------------------------------------------------
     3  ><      ................      0.00    0.00             0.00    0.00             0.00    0.34
     1  INIT    ................      0.06   16.67             0.02   66.67             0.72   63.38
     1  GEOMET  ................      0.02    5.56             0.00    0.00             0.04    3.23
     1  INPUTA  ................      0.00    1.11             0.00   16.67             0.00    0.30
     1  MAINSY  ................      0.01    2.22             0.00    0.00             0.07    5.94
     1  SYMFIT  ................      0.00    0.00             0.00    0.00             0.01    0.83
     1  CORORT  ................      0.00    0.00             0.00    0.00             0.01    0.79
     1  SYMORB  ................      0.00    1.11             0.00   16.67             0.00    0.06
     1  CLSMAT  ................      0.00    0.00             0.00    0.00             0.01    0.46
     1  ORTHON  ................      0.00    1.11             0.00    0.00             0.00    0.42
     1  GENPT   ................      0.01    3.33             0.00    0.00             0.01    1.10
     1  PTBAS   ................      0.00    1.11             0.00    0.00             0.01    0.45
     8  FOCKY   ................      0.02   54.44             0.00    0.00             0.02   17.16
     8  FOCKTR  ................      0.00    1.11             0.00    0.00             0.00    0.43
     8  SDIIS   ................      0.00    3.33             0.00    0.00             0.00    1.90
     1  COREPS  ................      0.02    4.44             0.00    0.00             0.02    1.51
     1  POPAN   ................      0.00    1.11             0.00    0.00             0.00    0.40
     1  DEBYE   ................      0.00    0.00             0.00    0.00             0.00    0.16
     1  EXIT PROCEDURE .........      0.01    3.33             0.00    0.00             0.01    1.13


 Currently Open Files (EXIT00)
 ====================

 Unit    Access Format  Status   Type       Ident (file)
 -------------------------------------------------------
   3      SEQ    FORM   TRANSP  NORMAL      LOGFILE
                                          ( logfile )

 ***************************************************************************************************
 (LOGFILE)
 <Dec11-2023> <10:41:41>  DIRAC 2019  RunTime: Dec11-2023 10:41:41  Nodes: 1  Procs: 1
 <Dec11-2023> <10:41:41>  NORMAL TERMINATION
 <Dec11-2023> <10:41:41>  END
 <Dec11-2023> <10:41:43>  ADF 2019  RunTime: Dec11-2023 10:41:43  Nodes: 1  Procs: 1
 <Dec11-2023> <10:41:43>  Hydrogen (TZP)
 <Dec11-2023> <10:41:43>  RunType   : CREATE
 <Dec11-2023> <10:41:43>  Net Charge: 0 (Nuclei minus Electrons)
 <Dec11-2023> <10:41:43>  Symmetry  : ATOM
  Coordinates
    Atom         X           Y           Z   (Angstrom)
    1.H         0.000000    0.000000    0.000000
 <Dec11-2023> <10:41:43>  >>>> CORORT
 <Dec11-2023> <10:41:43>  >>>> CLSMAT
 <Dec11-2023> <10:41:43>  >>>> ORTHON
 <Dec11-2023> <10:41:43>  >>>> GENPT
 <Dec11-2023> <10:41:43>  Block Length=  64
 <Dec11-2023> <10:41:43>  >>>> PTBAS
 <Dec11-2023> <10:41:43>  >>>> CYCLE
 <Dec11-2023> <10:41:43>              |Error|         MaxErr       Wt(A-DIIS)
 <Dec11-2023> <10:41:43>      1      0.00000000      0.00000000
 <Dec11-2023> <10:41:43>      2      0.03153787      0.03011049
 <Dec11-2023> <10:41:43>      3      0.00861799      0.00834303    100.0
 <Dec11-2023> <10:41:43>      4      0.00173235      0.00171862      0.7
 <Dec11-2023> <10:41:43>      5      0.00004367      0.00003977      0.0
 <Dec11-2023> <10:41:43>      6      0.00000238      0.00000216      0.0
 <Dec11-2023> <10:41:44>      7      0.00000001      0.00000001      0.0
 <Dec11-2023> <10:41:44>  SCF converged
 <Dec11-2023> <10:41:44>      8      0.00000000      0.00000000      0.0
 <Dec11-2023> <10:41:44>  >>>> POPAN
 <Dec11-2023> <10:41:44>  >>>> DEBYE
 <Dec11-2023> <10:41:44>  NORMAL TERMINATION
 <Dec11-2023> <10:41:44>  END

 *******************************************************************************
 *                                                                             *
 *  -------------------------------------                                      *
 *   Amsterdam Density Functional  (ADF)         2019                          *
 *  -------------------------------------                                      *
 *                                               r79301 2019-11-09             *
 *                                                                             *
 *                                                                             *
 *                            =====================                            *
 *                            |                   |                            *
 *                            |     D I R A C     |                            *
 *                            |                   |                            *
 *                            =====================                            *
 *                                                                             *
 *                                                                             *
 *   Online information and documentation:  https://www.scm.com/support/       *
 *   E-mail:  support@scm.com   info@scm.com                                   *
 *                                                                             *
 *   Scientific publications using ADF results must be properly referenced     *
 *   See the User Manuals (or the web site) for recommended citations          *
 *   The terms and conditions of the End User License Agreement apply to       *
 *   the use of ADF, https://www.scm.com/license-terms/                        *
 *                                                                             *
 **********************  x86_64_linux_intel / intelmpi  ************************
 
  
 DIRAC 2019  RunTime: Dec11-2023 10:41:44  Nodes: 1  Procs: 1

 Temporary files are created in /scratch/kid_0.387393395 (0x58465342)

1
 OXYGEN ATOM 1s CORE RELATIVISTIC, Point Nuc, A and c from li
 N J RN H ZN XION ANUC CLIGHT
 5000    4100.00000000197.36710137  8.00000000  0.00000000   15.994914  0.1370360E+03
  PH   PHI     EPS        DEL        DELRVR
  0.30  0.30     2500.00  0.00001000  0.00001000
 IDIRC  NC1  NDEBU NPRIN  IPUN IRCOR IWCOR
   1   300     0     0     0     0     1
   XALPHA      XLATTER      RNUC
  0.70000000  0.00000000  0.00000000 Point Charge
   XN   XL   XJ      XE          XZ      XDELL
  1.0  0.0  0.5      -5.000       2.000     0.00000
  2.0  0.0  0.5      -1.000       2.000     0.00000
  2.0  1.0  0.5      -1.000       2.000     0.00000
  2.0  1.0  1.5      -1.000       2.000     0.00000
 ICORP=  0  NPCL=  0  DEMP=0.00  PEPS=0.000000
 R(1)=  0.1000000E-08 D=  0.1005080E+01 RNUC=  0.0000000E+00
 converged at cycle   28  DENSITY AVERAGING    0.2400
  MAXIMUM ERROR IN R.V(R) IS   0.81125670E-05
 Q,EY,EV,EZ,ESUM,ETOT,RHO  0.800000E+01 -0.101247E+02 -0.114961E+03 -0.177573E+03 -0.405053E+02 -0.743427E+02  0.414766E-14


 DIRAC CALCULATION
1                    OXYGEN ATOM 1s CORE RELATIVISTIC, Point Nuc, A and c from libtc


 EXCHANGE COEFFICIENT=  0.7000000           TAIL CORRECTION=  0.           NUCLEAR RADIUS=  0.000E+00
0                       ORBITAL    N    L    J     ELECTRONS     EIGENVALUE                DELTA OF EIGENV.

                          1S1/2  1.0  0.0  0.5     2.000       -0.1880014E+02                 0.7264358E-06
                          2S1/2  2.0  0.0  0.5     2.000       -0.8412236E+00                 0.5932752E-05
                          2P1/2  2.0  1.0  0.5     2.000       -0.3063203E+00                 0.5998471E-05
                          2P3/2  2.0  1.0  1.5     2.000       -0.3049609E+00                 0.5986971E-05


                                        NUCLEAR CHARGE=    8.000000
                            INTEGRAL OF CHARGE DENSITY=    8.000000
                           SUM OF THE ORBITAL ENERGIES=    -40.5053
                                          TOTAL ENERGY=    -74.3427
                                        KINETIC ENERGY=     74.4552
                             NUCLEAR ATTRACTION ENERGY=   -177.5730
                             ELECTRON REPULSION ENERGY=     36.3686
                                       EXCHANGE ENERGY=     -7.5935

 *******************************************************************************

                             D I R A C   E X I T
 NORMAL TERMINATION



 =================
 Timing Statistics
 =================
  
 Total Used :                     CPU=        0.10      System=        0.00     Elapsed=        0.11

 Calls  Section                     ( Mean, Percentage )
 ---------------------------------------------------------------------------------------------------
     2  ><      ................      0.00    0.00             0.00    0.00             0.00    0.00
     1  EXIT PROCEDURE .........      0.10  100.00             0.00  100.00             0.11  100.00


 Currently Open Files (EXIT00)
 ====================

 Unit    Access Format  Status   Type       Ident (file)
 -------------------------------------------------------
   3      SEQ    FORM   TRANSP  NORMAL      LOGFILE
                                          ( logfile )
 
Create O   file=TZP-O.1s
XC
  GGA PBE
End
relativistic ZORA
Corepotentials t12.rel
End

 *******************************************************************************
 *                                                                             *
 *  -------------------------------------                                      *
 *   Amsterdam Density Functional  (ADF)         2019                          *
 *  -------------------------------------                                      *
 *                                               r79301 2019-11-09             *
 *                                                                             *
 *                                                                             *
 *                              =================                              *
 *                              |               |                              *
 *                              |     A D F     |                              *
 *                              |               |                              *
 *                              =================                              *
 *                                                                             *
 *                                                                             *
 *   Online information and documentation:  https://www.scm.com/support/       *
 *   E-mail:  support@scm.com   info@scm.com                                   *
 *                                                                             *
 *   Scientific publications using ADF results must be properly referenced     *
 *   See the User Manuals (or the web site) for recommended citations          *
 *   The terms and conditions of the End User License Agreement apply to       *
 *   the use of ADF, https://www.scm.com/license-terms/                        *
 *                                                                             *
 **********************  x86_64_linux_intel / intelmpi  ************************
 
  
 ADF 2019  RunTime: Dec11-2023 10:41:44  Nodes: 1  Procs: 1

 Temporary files are created in /scratch/kid_0.2018617573 (0x58465342)

 Oxygen (TZP, 1s frozen)



 ===========================
 A T T A C H E D   F I L E S
 ===========================
  
 CREATE - Data File:    TZP-O.1s
                        Oxygen (TZP, 1s frozen)
 Core Potentials:
         file : t12.rel



 ===============================
 M O D E L   P A R A M E T E R S
 ===============================
  
 DENSITY FUNCTIONAL POTENTIAL (scf)
    LDA:                               PW92                                    == Not Default ==
    Gradient Corrections:              PBEc PBEx                               == Not Default ==

 SPIN  (restricted / unrestr.)
    Molecule:                          Restricted                               

 OTHER ASPECTS
    Relativistic Corrections:          scalar (ZORA,MAPA)                      == Not Default ==

    Nuclear Charge Density Model:      Point Charge Nuclei                      
    Core Treatment:                    Frozen Orbital(s)                        

    Hyperfine or Zeeman Interaction:   ---                                      



 =====================================
 S Y M M E T R Y ,   E L E C T R O N S
 =====================================
  
 Symmetry: ATOM

 Irreducible Representations, including subspecies
 -------------------------------------------------
 S
 P:x  P:y  P:z
 D:z2  D:x2-y2  D:xy  D:xz  D:yz
 F:z3  F:z  F:xyz  F:z2x  F:z2y  F:x  F:y


 Configuration of Valence Electrons
 ==================================

          Occupation Numbers
          -------------------------------------------------
 S        2
 P        4
 D        0
 F        0
          -------------------------------------------------

 Total:   6

 Net Charge: 0 (Nuclei minus Electrons)

 Preset values for MO occupations will be applied through SCF cycle no. 1000000
 Thereafter, the program will assign electrons to MOs that are spatially
 similar to the occupied MOs in a "reference" cycle ("KeepOrbitals").
 The reference cycle is always the PREVIOUS cycle: it will evolve with
 the SCF procedure.



 ================================
 (Slater-type)  F U N C T I O N S  ***  (Basis and Fit)  ***
 ================================
  

 Atom Type    1  (O)
 ==============

 Valence Basis Sets:   8
 -----------------------
   1 S    7.360000
   2 S    1.720000
   2 S    2.880000
   2 S    7.580000
   2 P    1.120000
   2 P    2.080000
   2 P    4.080000
   3 D    2.000000

 Frozen Core Shells
 ------------------
    S:  1


 BAS: List of all Elementary Cartesian Basis Functions
 =====================================================

 The numbering in the list below (to the right of the function characteristics) is referred
 to in print-outs of MO eigenvectors and Mulliken populations in the BAS representation
 (as contrasted to the SFO representation).

 Notes:
 1. The functions are characterized by a polynomial prefactor (powers of x,y,z and r) and
    an exponential decay factor alpha.
 2. Since the basis sets are specific for an atom TYPE, the individual functions occur on
    all atoms of that type.
 3. The word 'Core' in the left margin signals that it is a Core Function (CF) : not a
    degree of freedom in the valence set, but only used to ensure orthogonalization of
    the other valence basis functions on the frozen Core Orbitals.


 (power of) X  Y  Z  R     Alpha  on Atom
            ==========     =====     ==========

 O                                    1
                                  ---------------------------------------------------------------------------
    Core    0  0  0  0     7.360      1
            0  0  0  1     1.720      2
            0  0  0  1     2.880      3
            0  0  0  1     7.580      4
            1  0  0  0     1.120      5
            0  1  0  0     1.120      6
            0  0  1  0     1.120      7
            1  0  0  0     2.080      8
            0  1  0  0     2.080      9
            0  0  1  0     2.080     10
            1  0  0  0     4.080     11
            0  1  0  0     4.080     12
            0  0  1  0     4.080     13
            2  0  0  0     2.000     14
            1  1  0  0     2.000     15
            1  0  1  0     2.000     16
            0  2  0  0     2.000     17
            0  1  1  0     2.000     18
            0  0  2  0     2.000     19

 Total number of charge fitting functions (nprimf)        82
 Total number of Cartesian basis functions (naos)         19
 Total number of Cartesian core functions  (ncos)          1



 BAS: List of all Elementary Cartesian Basis Functions
 =====================================================

 The numbering in the list below (to the right of the function characteristics) is referred
 to in print-outs of MO eigenvectors and Mulliken populations in the BAS representation
 (as contrasted to the SFO representation).

 Notes:
 1. The functions are characterized by a polynomial prefactor (powers of x,y,z and r) and
    an exponential decay factor alpha.
 2. Since the basis sets are specific for an atom TYPE, the individual functions occur on
    all atoms of that type.
 3. The word 'Core' in the left margin signals that it is a Core Function (CF) : not a
    degree of freedom in the valence set, but only used to ensure orthogonalization of
    the other valence basis functions on the frozen Core Orbitals.


 (power of) X  Y  Z  R     Alpha  on Atom
            ==========     =====     ==========

 O                                    1
                                  ---------------------------------------------------------------------------
    Core    0  0  0  0     7.360      1
            0  0  0  1     1.720      2
            0  0  0  1     2.880      3
            0  0  0  1     7.580      4
            1  0  0  0     1.120      5
            0  1  0  0     1.120      6
            0  0  1  0     1.120      7
            1  0  0  0     2.080      8
            0  1  0  0     2.080      9
            0  0  1  0     2.080     10
            1  0  0  0     4.080     11
            0  1  0  0     4.080     12
            0  0  1  0     4.080     13
            2  0  0  0     2.000     14
            1  1  0  0     2.000     15
            1  0  1  0     2.000     16
            0  2  0  0     2.000     17
            0  1  1  0     2.000     18
            0  0  2  0     2.000     19
1
 ***************************************************************************************************



                                              ***********************
                                              *  T E C H N I C A L  *
                                              ***********************
  



 =============================================================
 P A R A L L E L I Z A T I O N  and  V E C T O R I Z A T I O N
 =============================================================
  
 Nr of parallel processes:                                1
 Maximum vector length in NumInt loops:                 128



 =====================
 S C F   U P D A T E S
 =====================
  
 Max. nr. of cycles:                               300
 Convergence criterion:                              0.0000000100
   secondary criterion:                              0.0000000100

 Mix parameter (when DIIS does not apply):           0.2000000000
 Special mix parameter for the first cycle:          1.0000000000
 Mixed ADIIS+SDIIS will be used                  
    Max number of expansion vectors:                10
    Pure ADIIS when Max([F,P]) is above              0.1000000000
    Pure SDIIS when Max([F,P]) is below              0.0010000000
 Automatic ElectronSmearing (in case of problematic SCF convergence) disabled



 =================
 P R E C I S I O N  ***  (General: NumInt, NeglectFunctionTails, ...)  ***
 =================
  

 NumInt:           Target precision:                12.0000000000
 -------           Initial precision:               10.0000000000
                   Min. precision (optimization):   10.0000000000

 Neglect Functions:          Basis functions:        0.1000000000E-13
 ------------------          Fit functions:          0.1000000000E-13



 ===========================
 L I N E A R   S C A L I N G
 ===========================
  

 Cut-off radii density fit:                        0.1000000000E-97
 Overlap cut-off criterion AO matrix elements:     0.1000000000E-97
 Cut-offs for Coulomb potential and fitted density:0.1000000000E-97
 Cut-off criterion for Coulomb multipole terms:    0.1000000000E-97
 Progressive Convergence parameter:                 0.000000000    
1
 ***************************************************************************************************



                                            ***************************
                                            *  C O M P U T A T I O N  *
                                            ***************************
  

 Number of elements of the density matrix on this node (used, total):       190       190



 ===========================================
 Numerical Integration : Fuzzy Cells (Becke)
 ===========================================
  
 Becke grid quality: VERYGOOD       
  
 Lebedev angular grid order:             min:  13 max:  41
 Nr. of radial points:                   min:  68 max:  68

 Total nr. of points:         68
 Nr. of blocks:                1
 Block length:                68
 Nr. of dummy points:          0


 Test of Precision of the Numerical Integration Grid
 ===================================================

 Integral of the Total Core Density:                   1.99999999865610
 Relative Error:                                      -6.720E-10



 ========================
 Density Fitting (zlmFit)
 ========================
  
 ZlmFit Fit Quality: VERYGOOD       
  
 Max L-expansion:                        min:   0 max:   0
 Nr. of radial interpolation points:     min: 140 max: 140



 =====
 S C F  ***  ScaSCF  ***
 =====
  

 CYCLE    1
 SCF Error: norm([F,P])=      0.000000000000, max([F,P])=      0.000000000000
 orbitals (Q,E):
 ---------------
 S :1...3            ( 2.00    -5.3654)  ( 0.00    -2.2073)  ( 0.00    23.6692)
 P :1...3            ( 4.00    -5.0045)  ( 0.00    -2.0150)  ( 0.00    -0.3846)
 D :1...1            ( 0.00    -2.0410)

 CYCLE    2
 SCF Error: norm([F,P])=      4.562993374873, max([F,P])=      2.528971113813
 orbitals (Q,E):
 ---------------
 S :1...2            ( 2.00    -0.1548)  ( 0.00     1.6948)
 P :1...2            ( 4.00     0.1773)  ( 0.00     0.9552)
 D :1...1            ( 0.00     1.4649)

 CYCLE    3
  SDIIS (wt  0.000):  0.3378  0.6622
 A-DIIS (wt  1.000):  0.4814  0.5186
  DIIS coefficients:  0.4814  0.5186
 SCF Error: norm([F,P])=      2.723155250500, max([F,P])=      1.798667049295
 orbitals (Q,E):
 ---------------
 S :1...2            ( 2.00    -1.1093)  ( 0.00     0.7549)
 P :1...2            ( 4.00    -0.5518)  ( 0.00     0.2590)
 D :1...1            ( 0.00     0.8910)

 CYCLE    4
  SDIIS (wt  0.000):  0.0919  0.9081
 A-DIIS (wt  1.000):  0.0000  1.0000
  DIIS coefficients:  0.0000  1.0000
 SCF Error: norm([F,P])=      0.289027138405, max([F,P])=      0.130648623511
 orbitals (Q,E):
 ---------------
 S :1...2            ( 2.00    -0.7707)  ( 0.00     0.9912)
 P :1...2            ( 4.00    -0.2284)  ( 0.00     0.4046)
 D :1...1            ( 0.00     1.1288)

 CYCLE    5
  SDIIS (wt  0.000):  0.0260  0.6740  0.3001
 A-DIIS (wt  1.000):  0.0000  0.5764  0.4236
  DIIS coefficients:  0.0000  0.5764  0.4236
 SCF Error: norm([F,P])=      0.416615089426, max([F,P])=      0.232643669786
 orbitals (Q,E):
 ---------------
 S :1...2            ( 2.00    -0.8764)  ( 0.00     0.9107)
 P :1...2            ( 4.00    -0.3280)  ( 0.00     0.3557)
 D :1...1            ( 0.00     1.0703)

 CYCLE    6
  SDIIS (wt  0.942):  0.0005  0.0237 -0.0203  0.9960
 A-DIIS (wt  0.058):  0.0000  0.0000  0.0000  1.0000
  DIIS coefficients:  0.0005  0.0224 -0.0191  0.9962
 SCF Error: norm([F,P])=      0.013723272809, max([F,P])=      0.006719036732
 orbitals (Q,E):
 ---------------
 S :1...2            ( 2.00    -0.8830)  ( 0.00     0.9058)
 P :1...2            ( 4.00    -0.3343)  ( 0.00     0.3521)
 D :1...1            ( 0.00     1.0657)

 CYCLE    7
  SDIIS (wt  1.000): -0.0000  0.0016  0.0023  0.0424  0.9537
  DIIS coefficients: -0.0000  0.0016  0.0023  0.0424  0.9537
 SCF Error: norm([F,P])=      0.001103645928, max([F,P])=      0.000634039171
 orbitals (Q,E):
 ---------------
 S :1...2            ( 2.00    -0.8827)  ( 0.00     0.9060)
 P :1...2            ( 4.00    -0.3340)  ( 0.00     0.3523)
 D :1...1            ( 0.00     1.0659)

 CYCLE    8
  SDIIS (wt  1.000): -0.0000 -0.0001  0.0000 -0.0032  0.0268  0.9765
  DIIS coefficients: -0.0000 -0.0001  0.0000 -0.0032  0.0268  0.9765
 SCF Error: norm([F,P])=      0.000035919805, max([F,P])=      0.000020263970
 orbitals (Q,E):
 ---------------
 S :1...2            ( 2.00    -0.8827)  ( 0.00     0.9060)
 P :1...2            ( 4.00    -0.3340)  ( 0.00     0.3522)
 D :1...1            ( 0.00     1.0659)

 CYCLE    9
  SDIIS (wt  1.000): -0.0000  0.0008  0.0188  0.9804
  DIIS coefficients: -0.0000  0.0008  0.0188  0.9804
 SCF Error: norm([F,P])=      0.000000326384, max([F,P])=      0.000000183924
 orbitals (Q,E):
 ---------------
 S :1...2            ( 2.00    -0.8827)  ( 0.00     0.9060)
 P :1...2            ( 4.00    -0.3340)  ( 0.00     0.3522)
 D :1...1            ( 0.00     1.0659)

 CYCLE   10
  SDIIS (wt  1.000):  0.0000  0.0003  0.9996
  DIIS coefficients:  0.0000  0.0003  0.9996
 SCF Error: norm([F,P])=      0.000000000559, max([F,P])=      0.000000000306
 orbitals (Q,E):
 ---------------
 S :1...2            ( 2.00    -0.8827)  ( 0.00     0.9060)
 P :1...2            ( 4.00    -0.3340)  ( 0.00     0.3522)
 D :1...1            ( 0.00     1.0659)

 SCF CONVERGED

 CYCLE   11
1
 ***************************************************************************************************



                                                *******************
                                                *  R E S U L T S  *
                                                *******************
  
 *** Using FIT density in Focky
  SDIIS (wt  1.000): -0.0000  0.0143  0.9857
  DIIS coefficients: -0.0000  0.0143  0.9857
 SCF Error: norm([F,P])=      0.000000000010, max([F,P])=      0.000000000006

 Scaled ZORA Orbital Energies, per Irrep and Spin:
 =================================================
                        Occup              E (au)              E (eV)       Diff (eV) with prev. cycle
                        -----      --------------------        ------       --------------------------
 S
               1        2.000     -0.88272313143209E+00       -24.020              -9.28E-11
               2        0.000      0.90601345014671E+00        24.654
               3        0.000      0.29578810816937E+02       804.880
 P
               1        4.000     -0.33400585272070E+00        -9.089              -8.94E-11
               2        0.000      0.35224911365993E+00         9.585
               3        0.000      0.38342927625315E+01       104.336
 D
               1        0.000      0.10658965783141E+01        29.005


 Partially Occupied:
               1 P                -0.33400585272070E+00
  
 HOMO :        1 S                -0.88272313143209E+00
 LUMO :        2 P                 0.35224911365993E+00
  


 Orbital Energies, all Irreps
 ========================================

 Irrep        no.  (spin)   Occup              E (au)                E (eV)
 ---------------------------------------------------------------------------
 S             1             2.00       -0.88272313143209E+00       -24.0201
 P             1             4.00       -0.33400585272070E+00        -9.0888
 P             2             0.00        0.35224911365993E+00         9.5852
 S             2             0.00        0.90601345014671E+00        24.6539
 D             1             0.00        0.10658965783141E+01        29.0045
 P             3             0.00        0.38342927625315E+01       104.3364
 S             3             0.00        0.29578810816937E+02       804.8804


 Scaled ZORA Orbital Energies of the Core Orbitals:
 ==================================================

 (Note that the atoms are grouped by atomtype, see the labels, and may hence NOT be in input order)

 AtomType  Orbital  Atom                   E (au)                        E (eV)
 --------  -------  ----           --------------------        ----------------
 O           1S        1          -0.18925919758629E+02                -515.000



 =======================================
 M U L L I K E N   P O P U L A T I O N S
 =======================================
  
 The survey below gives for each atom:
 a) the total charge (Z minus electrons)
 b) the net spin polarization (nr of electrons spin-A minus spin-B)
 c) for each spin the atomic electron valence density (integrated) per L-value.

 Atom              Charge    Spin density          S         P         D         F
 ----              ------    ------------       ------    ------    ------    ------
 1 O              -0.0000                       2.0000    4.0000    0.0000    0.0000

 Populations of individual BAS functions
 ----------------------------------------
 1 O            0.0005  0.9226  1.0966 -0.0196  0.3346  0.3346  0.3346  0.7512  0.7512  0.7512
                0.2476  0.2476  0.2476  0.0000  0.0000  0.0000  0.0000  0.0000  0.0000

 Gross Charges per Atom (Z minus electrons)
 ==========================================
            -0.0000
 Net Total: -0.00000000



 =======================================================================
 Electrostatic potential at the Nuclei due to electrons and other nuclei
 =======================================================================
  
         Atom                  Potential
         ----                  ---------
     1)   O                  22.20265662
 
 
 ========================
 No memory problems found
 ========================
 
 Maximum number of active allocate calls:         389
 
 *******************************************************************************

                             A D F   E X I T
 NORMAL TERMINATION



 =================
 Timing Statistics
 =================
  
 Total Used :                     CPU=        0.44      System=        0.01     Elapsed=        0.48

 Calls  Section                     ( Mean, Percentage )
 ---------------------------------------------------------------------------------------------------
     3  ><      ................      0.00    0.91             0.00    0.00             0.00    0.82
     1  INIT    ................      0.07   16.36             0.00    0.00             0.08   16.04
     1  GEOMET  ................      0.01    2.73             0.01  100.00             0.02    4.72
     1  INPUTA  ................      0.00    0.91             0.00    0.00             0.00    0.71
     1  MAINSY  ................      0.01    1.82             0.00    0.00             0.01    2.85
     1  SYMFIT  ................      0.00    0.00             0.00    0.00             0.00    0.34
     1  CORORT  ................      0.00    0.00             0.00    0.00             0.00    0.30
     1  SYMORB  ................      0.00    0.00             0.00    0.00             0.00    0.18
     1  CLSMAT  ................      0.01    1.82             0.00    0.00             0.01    1.20
     1  ORTHON  ................      0.00    0.91             0.00    0.00             0.01    1.08
     1  GENPT   ................      0.01    2.73             0.00    0.00             0.01    3.11
     1  PTBAS   ................      0.01    1.82             0.00    0.00             0.01    1.15
    11  FOCKY   ................      0.02   54.55             0.00    0.00             0.02   51.79
    11  FOCKTR  ................      0.00    0.91             0.00    0.00             0.00    1.60
    11  SDIIS   ................      0.00    6.36             0.00    0.00             0.00    6.21
     1  COREPS  ................      0.02    3.64             0.00    0.00             0.02    3.65
     1  POPAN   ................      0.01    1.82             0.00    0.00             0.01    1.13
     1  DEBYE   ................      0.00    0.00             0.00    0.00             0.00    0.38
     1  EXIT PROCEDURE .........      0.01    2.73             0.00    0.00             0.01    2.74


 Currently Open Files (EXIT00)
 ====================

 Unit    Access Format  Status   Type       Ident (file)
 -------------------------------------------------------
   3      SEQ    FORM   TRANSP  NORMAL      LOGFILE
                                          ( logfile )

 ***************************************************************************************************
 (LOGFILE)
 <Dec11-2023> <10:41:41>  DIRAC 2019  RunTime: Dec11-2023 10:41:41  Nodes: 1  Procs: 1
 <Dec11-2023> <10:41:41>  NORMAL TERMINATION
 <Dec11-2023> <10:41:41>  END
 <Dec11-2023> <10:41:43>  ADF 2019  RunTime: Dec11-2023 10:41:43  Nodes: 1  Procs: 1
 <Dec11-2023> <10:41:43>  Hydrogen (TZP)
 <Dec11-2023> <10:41:43>  RunType   : CREATE
 <Dec11-2023> <10:41:43>  Net Charge: 0 (Nuclei minus Electrons)
 <Dec11-2023> <10:41:43>  Symmetry  : ATOM
  Coordinates
    Atom         X           Y           Z   (Angstrom)
    1.H         0.000000    0.000000    0.000000
 <Dec11-2023> <10:41:43>  >>>> CORORT
 <Dec11-2023> <10:41:43>  >>>> CLSMAT
 <Dec11-2023> <10:41:43>  >>>> ORTHON
 <Dec11-2023> <10:41:43>  >>>> GENPT
 <Dec11-2023> <10:41:43>  Block Length=  64
 <Dec11-2023> <10:41:43>  >>>> PTBAS
 <Dec11-2023> <10:41:43>  >>>> CYCLE
 <Dec11-2023> <10:41:43>              |Error|         MaxErr       Wt(A-DIIS)
 <Dec11-2023> <10:41:43>      1      0.00000000      0.00000000
 <Dec11-2023> <10:41:43>      2      0.03153787      0.03011049
 <Dec11-2023> <10:41:43>      3      0.00861799      0.00834303    100.0
 <Dec11-2023> <10:41:43>      4      0.00173235      0.00171862      0.7
 <Dec11-2023> <10:41:43>      5      0.00004367      0.00003977      0.0
 <Dec11-2023> <10:41:43>      6      0.00000238      0.00000216      0.0
 <Dec11-2023> <10:41:44>      7      0.00000001      0.00000001      0.0
 <Dec11-2023> <10:41:44>  SCF converged
 <Dec11-2023> <10:41:44>      8      0.00000000      0.00000000      0.0
 <Dec11-2023> <10:41:44>  >>>> POPAN
 <Dec11-2023> <10:41:44>  >>>> DEBYE
 <Dec11-2023> <10:41:44>  NORMAL TERMINATION
 <Dec11-2023> <10:41:44>  END
 <Dec11-2023> <10:41:44>  DIRAC 2019  RunTime: Dec11-2023 10:41:44  Nodes: 1  Procs: 1
 <Dec11-2023> <10:41:44>  NORMAL TERMINATION
 <Dec11-2023> <10:41:44>  END
 <Dec11-2023> <10:41:44>  ADF 2019  RunTime: Dec11-2023 10:41:44  Nodes: 1  Procs: 1
 <Dec11-2023> <10:41:44>  Oxygen (TZP, 1s frozen)
 <Dec11-2023> <10:41:44>  RunType   : CREATE
 <Dec11-2023> <10:41:44>  Net Charge: 0 (Nuclei minus Electrons)
 <Dec11-2023> <10:41:44>  Symmetry  : ATOM
  Coordinates
    Atom         X           Y           Z   (Angstrom)
    1.O         0.000000    0.000000    0.000000
 <Dec11-2023> <10:41:44>  >>>> CORORT
 <Dec11-2023> <10:41:44>  >>>> CLSMAT
 <Dec11-2023> <10:41:44>  >>>> ORTHON
 <Dec11-2023> <10:41:44>  >>>> GENPT
 <Dec11-2023> <10:41:44>  Block Length=  68
 <Dec11-2023> <10:41:44>  >>>> PTBAS
 <Dec11-2023> <10:41:44>  >>>> CYCLE
 <Dec11-2023> <10:41:44>              |Error|         MaxErr       Wt(A-DIIS)
 <Dec11-2023> <10:41:44>      1      0.00000000      0.00000000
 <Dec11-2023> <10:41:44>      2      4.56299337      2.52897111
 <Dec11-2023> <10:41:44>      3      2.72315525      1.79866705    100.0
 <Dec11-2023> <10:41:44>      4      0.28902714      0.13064862    100.0
 <Dec11-2023> <10:41:44>      5      0.41661509      0.23264367    100.0
 <Dec11-2023> <10:41:44>      6      0.01372327      0.00671904      5.8
 <Dec11-2023> <10:41:44>      7      0.00110365      0.00063404      0.0
 <Dec11-2023> <10:41:44>      8      0.00003592      0.00002026      0.0
 <Dec11-2023> <10:41:44>      9      0.00000033      0.00000018      0.0
 <Dec11-2023> <10:41:44>     10      0.00000000      0.00000000      0.0
 <Dec11-2023> <10:41:44>  SCF converged
 <Dec11-2023> <10:41:44>     11      0.00000000      0.00000000      0.0
 <Dec11-2023> <10:41:44>  >>>> POPAN
 <Dec11-2023> <10:41:44>  >>>> DEBYE
 <Dec11-2023> <10:41:44>  NORMAL TERMINATION
 <Dec11-2023> <10:41:44>  END

 *******************************************************************************
 *                                                                             *
 *  -------------------------------------                                      *
 *   Amsterdam Density Functional  (ADF)         2019                          *
 *  -------------------------------------                                      *
 *                                               r79301 2019-11-09             *
 *                                                                             *
 *                                                                             *
 *                            =====================                            *
 *                            |                   |                            *
 *                            |     D I R A C     |                            *
 *                            |                   |                            *
 *                            =====================                            *
 *                                                                             *
 *                                                                             *
 *   Online information and documentation:  https://www.scm.com/support/       *
 *   E-mail:  support@scm.com   info@scm.com                                   *
 *                                                                             *
 *   Scientific publications using ADF results must be properly referenced     *
 *   See the User Manuals (or the web site) for recommended citations          *
 *   The terms and conditions of the End User License Agreement apply to       *
 *   the use of ADF, https://www.scm.com/license-terms/                        *
 *                                                                             *
 **********************  x86_64_linux_intel / intelmpi  ************************
 
  
 DIRAC 2019  RunTime: Dec11-2023 10:41:44  Nodes: 1  Procs: 1

 Temporary files are created in /scratch/kid_0.919523164 (0x58465342)

1
 TUNGSTEN ATOM 4d CORE RELATIVISTIC, Point Nuc, A and c from 
 N J RN H ZN XION ANUC CLIGHT
 5000   22100.00000000197.36710137 74.00000000  0.00000000  183.950932  0.1370360E+03
  PH   PHI     EPS        DEL        DELRVR
  0.30  0.30     2500.00  0.00001000  0.00001000
 IDIRC  NC1  NDEBU NPRIN  IPUN IRCOR IWCOR
   1   300     0     0     0     0    14
   XALPHA      XLATTER      RNUC
  0.70000000  0.00000000  0.00000000 Point Charge
   XN   XL   XJ      XE          XZ      XDELL
  1.0  0.0  0.5   -2600.000       2.000     0.00000
  2.0  0.0  0.5    -425.000       2.000     0.00000
  2.0  1.0  0.5    -425.000       2.000     0.00000
  2.0  1.0  1.5    -425.000       4.000     0.00000
  3.0  0.0  0.5    -100.000       2.000     0.00000
  3.0  1.0  0.5    -100.000       2.000     0.00000
  3.0  1.0  1.5    -100.000       4.000     0.00000
  3.0  2.0  1.5     -80.000       4.000     0.00000
  3.0  2.0  2.5     -80.000       6.000     0.00000
  4.0  0.0  0.5     -22.000       2.000     0.00000
  4.0  1.0  0.5     -20.000       2.000     0.00000
  4.0  1.0  1.5     -20.000       4.000     0.00000
  4.0  2.0  1.5     -11.000       4.000     0.00000
  4.0  2.0  2.5     -11.000       6.000     0.00000
  4.0  3.0  2.5      -1.000       6.000     0.00000
  4.0  3.0  3.5      -1.000       8.000     0.00000
  5.0  0.0  0.5      -3.000       2.000     0.00000
  5.0  1.0  0.5      -2.200       2.000     0.00000
  5.0  1.0  1.5      -2.200       4.000     0.00000
  5.0  2.0  1.5      -0.500       4.000     0.00000
  5.0  2.0  2.5      -0.500       0.000     0.00000
  6.0  0.0  0.5      -0.200       2.000     0.00000
 ICORP=  0  NPCL=  0  DEMP=0.00  PEPS=0.000000
 R(1)=  0.1000000E-08 D=  0.1005080E+01 RNUC=  0.0000000E+00
 converged at cycle   63  DENSITY AVERAGING    0.1536
  MAXIMUM ERROR IN R.V(R) IS   0.78838062E-05
 Q,EY,EV,EZ,ESUM,ETOT,RHO  0.740000E+02 -0.431420E+03 -0.281568E+05 -0.403919E+05 -0.993885E+04 -0.161643E+05  0.726391E-09


 DIRAC CALCULATION
1                    TUNGSTEN ATOM 4d CORE RELATIVISTIC, Point Nuc, A and c from libtc


 EXCHANGE COEFFICIENT=  0.7000000           TAIL CORRECTION=  0.           NUCLEAR RADIUS=  0.000E+00
0                       ORBITAL    N    L    J     ELECTRONS     EIGENVALUE                DELTA OF EIGENV.

                          1S1/2  1.0  0.0  0.5     2.000       -0.2549514E+04                 0.5980248E-04
                          2S1/2  2.0  0.0  0.5     2.000       -0.4399118E+03                 0.5052420E-04
                          2P1/2  2.0  1.0  0.5     2.000       -0.4208427E+03                 0.5265062E-04
                          2P3/2  2.0  1.0  1.5     4.000       -0.3711192E+03                 0.5139441E-04
                          3S1/2  3.0  0.0  0.5     2.000       -0.1012881E+03                 0.3437035E-04
                          3P1/2  3.0  1.0  0.5     2.000       -0.9277148E+02                 0.3553128E-04
                          3P3/2  3.0  1.0  1.5     4.000       -0.8201733E+02                 0.3404634E-04
                          3D3/2  3.0  2.0  1.5     4.000       -0.6762803E+02                 0.3680712E-04
                          3D5/2  3.0  2.0  2.5     6.000       -0.6528623E+02                 0.3629511E-04
                          4S1/2  4.0  0.0  0.5     2.000       -0.2084139E+02                 0.1939427E-04
                          4P1/2  4.0  1.0  0.5     2.000       -0.1730737E+02                 0.1933978E-04
                          4P3/2  4.0  1.0  1.5     4.000       -0.1480597E+02                 0.1810922E-04
                          4D3/2  4.0  2.0  1.5     4.000       -0.8989319E+01                 0.1779394E-04
                          4D5/2  4.0  2.0  2.5     6.000       -0.8528007E+01                 0.1741170E-04
                          4F5/2  4.0  3.0  2.5     6.000       -0.1237480E+01                 0.1544089E-04
                          4F7/2  4.0  3.0  3.5     8.000       -0.1154634E+01                 0.1522033E-04
                          5S1/2  5.0  0.0  0.5     2.000       -0.2863514E+01                 0.7979521E-05
                          5P1/2  5.0  1.0  0.5     2.000       -0.1813289E+01                 0.7246225E-05
                          5P3/2  5.0  1.0  1.5     4.000       -0.1448762E+01                 0.6602120E-05
                          5D3/2  5.0  2.0  1.5     4.000       -0.1486933E+00                 0.3973088E-05
                          5D5/2  5.0  2.0  2.5     0.000       -0.1223153E+00                 0.3735081E-05
                          6S1/2  6.0  0.0  0.5     2.000       -0.1847434E+00                 0.1808440E-05


                                        NUCLEAR CHARGE=   74.000000
                            INTEGRAL OF CHARGE DENSITY=   74.000000
                           SUM OF THE ORBITAL ENERGIES=  -9938.8529
                                          TOTAL ENERGY= -16164.2530
                                        KINETIC ENERGY=  18217.9700
                             NUCLEAR ATTRACTION ENERGY= -40391.9132
                             ELECTRON REPULSION ENERGY=   6333.2551
                                       EXCHANGE ENERGY=   -323.5649

 *******************************************************************************

                             D I R A C   E X I T
 NORMAL TERMINATION



 =================
 Timing Statistics
 =================
  
 Total Used :                     CPU=        0.68      System=        0.00     Elapsed=        0.69

 Calls  Section                     ( Mean, Percentage )
 ---------------------------------------------------------------------------------------------------
     2  ><      ................      0.00    0.00             0.00    0.00             0.00    0.00
     1  EXIT PROCEDURE .........      0.68  100.00             0.00  100.00             0.69  100.00


 Currently Open Files (EXIT00)
 ====================

 Unit    Access Format  Status   Type       Ident (file)
 -------------------------------------------------------
   3      SEQ    FORM   TRANSP  NORMAL      LOGFILE
                                          ( logfile )
 
Create W   file=TZP-W.4d
XC
  GGA PBE
End
relativistic ZORA
Corepotentials t12.rel
End

 *******************************************************************************
 *                                                                             *
 *  -------------------------------------                                      *
 *   Amsterdam Density Functional  (ADF)         2019                          *
 *  -------------------------------------                                      *
 *                                               r79301 2019-11-09             *
 *                                                                             *
 *                                                                             *
 *                              =================                              *
 *                              |               |                              *
 *                              |     A D F     |                              *
 *                              |               |                              *
 *                              =================                              *
 *                                                                             *
 *                                                                             *
 *   Online information and documentation:  https://www.scm.com/support/       *
 *   E-mail:  support@scm.com   info@scm.com                                   *
 *                                                                             *
 *   Scientific publications using ADF results must be properly referenced     *
 *   See the User Manuals (or the web site) for recommended citations          *
 *   The terms and conditions of the End User License Agreement apply to       *
 *   the use of ADF, https://www.scm.com/license-terms/                        *
 *                                                                             *
 **********************  x86_64_linux_intel / intelmpi  ************************
 
  
 ADF 2019  RunTime: Dec11-2023 10:41:45  Nodes: 1  Procs: 1

 Temporary files are created in /scratch/kid_0.938926629 (0x58465342)

 Tungsten (TZP, 4d frozen)



 ===========================
 A T T A C H E D   F I L E S
 ===========================
  
 CREATE - Data File:    TZP-W.4d
                        Tungsten (TZP, 4d frozen)
 Core Potentials:
         file : t12.rel



 ===============================
 M O D E L   P A R A M E T E R S
 ===============================
  
 DENSITY FUNCTIONAL POTENTIAL (scf)
    LDA:                               PW92                                    == Not Default ==
    Gradient Corrections:              PBEc PBEx                               == Not Default ==

 SPIN  (restricted / unrestr.)
    Molecule:                          Restricted                               

 OTHER ASPECTS
    Relativistic Corrections:          scalar (ZORA,MAPA)                      == Not Default ==

    Nuclear Charge Density Model:      Point Charge Nuclei                      
    Core Treatment:                    Frozen Orbital(s)                        

    Hyperfine or Zeeman Interaction:   ---                                      



 =====================================
 S Y M M E T R Y ,   E L E C T R O N S
 =====================================
  
 Symmetry: ATOM

 Irreducible Representations, including subspecies
 -------------------------------------------------
 S
 P:x  P:y  P:z
 D:z2  D:x2-y2  D:xy  D:xz  D:yz
 F:z3  F:z  F:xyz  F:z2x  F:z2y  F:x  F:y


 Configuration of Valence Electrons
 ==================================

          Occupation Numbers
          -------------------------------------------------
 S        2*2
 P        6
 D        4
 F        14
          -------------------------------------------------

 Total:   28

 Net Charge: 0 (Nuclei minus Electrons)

 Preset values for MO occupations will be applied through SCF cycle no. 1000000
 Thereafter, the program will assign electrons to MOs that are spatially
 similar to the occupied MOs in a "reference" cycle ("KeepOrbitals").
 The reference cycle is always the PREVIOUS cycle: it will evolve with
 the SCF procedure.



 ================================
 (Slater-type)  F U N C T I O N S  ***  (Basis and Fit)  ***
 ================================
  

 Atom Type    1  (W)
 ==============

 Valence Basis Sets:  25
 -----------------------
   1 S   52.000000
   2 S   33.250000
   3 S   19.100000
   4 S   11.650000
   2 P   36.850000
   3 P   16.500000
   4 P   11.550000
   3 D   20.100000
   4 D   10.300000
   1 S  163.900000
   5 S    6.050000
   5 S    3.950000
   6 S    2.850000
   6 S    1.800000
   6 S    1.140000
   5 P    5.900000
   5 P    4.000000
   5 P    2.700000
   5 D    4.150000
   5 D    2.250000
   5 D    1.200000
   4 F   13.550000
   4 F    7.050000
   4 F    3.550000
   6 P    1.800000

 Frozen Core Shells
 ------------------
    S:  4
    P:  3
    D:  2


 BAS: List of all Elementary Cartesian Basis Functions
 =====================================================

 The numbering in the list below (to the right of the function characteristics) is referred
 to in print-outs of MO eigenvectors and Mulliken populations in the BAS representation
 (as contrasted to the SFO representation).

 Notes:
 1. The functions are characterized by a polynomial prefactor (powers of x,y,z and r) and
    an exponential decay factor alpha.
 2. Since the basis sets are specific for an atom TYPE, the individual functions occur on
    all atoms of that type.
 3. The word 'Core' in the left margin signals that it is a Core Function (CF) : not a
    degree of freedom in the valence set, but only used to ensure orthogonalization of
    the other valence basis functions on the frozen Core Orbitals.


 (power of) X  Y  Z  R     Alpha  on Atom
            ==========     =====     ==========

 W                                    1
                                  ---------------------------------------------------------------------------
    Core    0  0  0  0    52.000      1
    Core    0  0  0  1    33.250      2
    Core    0  0  0  2    19.100      3
    Core    0  0  0  3    11.650      4
    Core    1  0  0  0    36.850      5
    Core    0  1  0  0    36.850      6
    Core    0  0  1  0    36.850      7
    Core    1  0  0  1    16.500      8
    Core    0  1  0  1    16.500      9
    Core    0  0  1  1    16.500     10
    Core    1  0  0  2    11.550     11
    Core    0  1  0  2    11.550     12
    Core    0  0  1  2    11.550     13
    Core    2  0  0  0    20.100     14
    Core    1  1  0  0    20.100     15
    Core    1  0  1  0    20.100     16
    Core    0  2  0  0    20.100     17
    Core    0  1  1  0    20.100     18
    Core    0  0  2  0    20.100     19
    Core    2  0  0  1    10.300     20
    Core    1  1  0  1    10.300     21
    Core    1  0  1  1    10.300     22
    Core    0  2  0  1    10.300     23
    Core    0  1  1  1    10.300     24
    Core    0  0  2  1    10.300     25
            0  0  0  0   163.900     26
            0  0  0  4     6.050     27
            0  0  0  4     3.950     28
            0  0  0  5     2.850     29
            0  0  0  5     1.800     30
            0  0  0  5     1.140     31
            1  0  0  3     5.900     32
            0  1  0  3     5.900     33
            0  0  1  3     5.900     34
            1  0  0  3     4.000     35
            0  1  0  3     4.000     36
            0  0  1  3     4.000     37
            1  0  0  3     2.700     38
            0  1  0  3     2.700     39
            0  0  1  3     2.700     40
            2  0  0  2     4.150     41
            1  1  0  2     4.150     42
            1  0  1  2     4.150     43
            0  2  0  2     4.150     44
            0  1  1  2     4.150     45
            0  0  2  2     4.150     46
            2  0  0  2     2.250     47
            1  1  0  2     2.250     48
            1  0  1  2     2.250     49
            0  2  0  2     2.250     50
            0  1  1  2     2.250     51
            0  0  2  2     2.250     52
            2  0  0  2     1.200     53
            1  1  0  2     1.200     54
            1  0  1  2     1.200     55
            0  2  0  2     1.200     56
            0  1  1  2     1.200     57
            0  0  2  2     1.200     58
            3  0  0  0    13.550     59
            2  1  0  0    13.550     60
            2  0  1  0    13.550     61
            1  2  0  0    13.550     62
            1  1  1  0    13.550     63
            1  0  2  0    13.550     64
            0  3  0  0    13.550     65
            0  2  1  0    13.550     66
            0  1  2  0    13.550     67
            0  0  3  0    13.550     68
            3  0  0  0     7.050     69
            2  1  0  0     7.050     70
            2  0  1  0     7.050     71
            1  2  0  0     7.050     72
            1  1  1  0     7.050     73
            1  0  2  0     7.050     74
            0  3  0  0     7.050     75
            0  2  1  0     7.050     76
            0  1  2  0     7.050     77
            0  0  3  0     7.050     78
            3  0  0  0     3.550     79
            2  1  0  0     3.550     80
            2  0  1  0     3.550     81
            1  2  0  0     3.550     82
            1  1  1  0     3.550     83
            1  0  2  0     3.550     84
            0  3  0  0     3.550     85
            0  2  1  0     3.550     86
            0  1  2  0     3.550     87
            0  0  3  0     3.550     88
            1  0  0  4     1.800     89
            0  1  0  4     1.800     90
            0  0  1  4     1.800     91

 Total number of charge fitting functions (nprimf)       329
 Total number of Cartesian basis functions (naos)         91
 Total number of Cartesian core functions  (ncos)         25



 BAS: List of all Elementary Cartesian Basis Functions
 =====================================================

 The numbering in the list below (to the right of the function characteristics) is referred
 to in print-outs of MO eigenvectors and Mulliken populations in the BAS representation
 (as contrasted to the SFO representation).

 Notes:
 1. The functions are characterized by a polynomial prefactor (powers of x,y,z and r) and
    an exponential decay factor alpha.
 2. Since the basis sets are specific for an atom TYPE, the individual functions occur on
    all atoms of that type.
 3. The word 'Core' in the left margin signals that it is a Core Function (CF) : not a
    degree of freedom in the valence set, but only used to ensure orthogonalization of
    the other valence basis functions on the frozen Core Orbitals.


 (power of) X  Y  Z  R     Alpha  on Atom
            ==========     =====     ==========

 W                                    1
                                  ---------------------------------------------------------------------------
    Core    0  0  0  0    52.000      1
    Core    0  0  0  1    33.250      2
    Core    0  0  0  2    19.100      3
    Core    0  0  0  3    11.650      4
    Core    1  0  0  0    36.850      5
    Core    0  1  0  0    36.850      6
    Core    0  0  1  0    36.850      7
    Core    1  0  0  1    16.500      8
    Core    0  1  0  1    16.500      9
    Core    0  0  1  1    16.500     10
    Core    1  0  0  2    11.550     11
    Core    0  1  0  2    11.550     12
    Core    0  0  1  2    11.550     13
    Core    2  0  0  0    20.100     14
    Core    1  1  0  0    20.100     15
    Core    1  0  1  0    20.100     16
    Core    0  2  0  0    20.100     17
    Core    0  1  1  0    20.100     18
    Core    0  0  2  0    20.100     19
    Core    2  0  0  1    10.300     20
    Core    1  1  0  1    10.300     21
    Core    1  0  1  1    10.300     22
    Core    0  2  0  1    10.300     23
    Core    0  1  1  1    10.300     24
    Core    0  0  2  1    10.300     25
            0  0  0  0   163.900     26
            0  0  0  4     6.050     27
            0  0  0  4     3.950     28
            0  0  0  5     2.850     29
            0  0  0  5     1.800     30
            0  0  0  5     1.140     31
            1  0  0  3     5.900     32
            0  1  0  3     5.900     33
            0  0  1  3     5.900     34
            1  0  0  3     4.000     35
            0  1  0  3     4.000     36
            0  0  1  3     4.000     37
            1  0  0  3     2.700     38
            0  1  0  3     2.700     39
            0  0  1  3     2.700     40
            2  0  0  2     4.150     41
            1  1  0  2     4.150     42
            1  0  1  2     4.150     43
            0  2  0  2     4.150     44
            0  1  1  2     4.150     45
            0  0  2  2     4.150     46
            2  0  0  2     2.250     47
            1  1  0  2     2.250     48
            1  0  1  2     2.250     49
            0  2  0  2     2.250     50
            0  1  1  2     2.250     51
            0  0  2  2     2.250     52
            2  0  0  2     1.200     53
            1  1  0  2     1.200     54
            1  0  1  2     1.200     55
            0  2  0  2     1.200     56
            0  1  1  2     1.200     57
            0  0  2  2     1.200     58
            3  0  0  0    13.550     59
            2  1  0  0    13.550     60
            2  0  1  0    13.550     61
            1  2  0  0    13.550     62
            1  1  1  0    13.550     63
            1  0  2  0    13.550     64
            0  3  0  0    13.550     65
            0  2  1  0    13.550     66
            0  1  2  0    13.550     67
            0  0  3  0    13.550     68
            3  0  0  0     7.050     69
            2  1  0  0     7.050     70
            2  0  1  0     7.050     71
            1  2  0  0     7.050     72
            1  1  1  0     7.050     73
            1  0  2  0     7.050     74
            0  3  0  0     7.050     75
            0  2  1  0     7.050     76
            0  1  2  0     7.050     77
            0  0  3  0     7.050     78
            3  0  0  0     3.550     79
            2  1  0  0     3.550     80
            2  0  1  0     3.550     81
            1  2  0  0     3.550     82
            1  1  1  0     3.550     83
            1  0  2  0     3.550     84
[...]
 <Dec11-2023> <10:57:48>      9      0.01210024      0.00073986      0.0
 <Dec11-2023> <10:58:08>     10      0.00494014      0.00025230      0.0
 <Dec11-2023> <10:58:27>     11      0.00282384      0.00011374      0.0
 <Dec11-2023> <10:58:47>     12      0.00067033      0.00003424      0.0
 <Dec11-2023> <10:59:07>     13      0.00025437      0.00000901      0.0
 <Dec11-2023> <10:59:26>     14      0.00023466      0.00001033      0.0
 <Dec11-2023> <10:59:46>     15      0.00009137      0.00000476      0.0
 <Dec11-2023> <11:00:05>     16      0.00002231      0.00000100      0.0
 <Dec11-2023> <11:00:25>     17      0.00003685      0.00000132      0.0
 <Dec11-2023> <11:00:44>     18      0.00001200      0.00000048      0.0
 <Dec11-2023> <11:01:04>     19      0.00000297      0.00000017      0.0
 <Dec11-2023> <11:01:14>  SCF converged
 <Dec11-2023> <11:01:23>     20      0.00000162      0.00000009      0.0
 <Dec11-2023> <11:01:35>  >>>> TOTEN
 <Dec11-2023> <11:01:55>  >>>> POPAN
 <Dec11-2023> <11:01:55>  >>>> DEBYE
 <Dec11-2023> <11:01:56>  >>>> ENGRAD
 <Dec11-2023> <11:03:06>  current energy                              -17.49247925 Hartree
 <Dec11-2023> <11:03:06>  energy change                      -0.00000378     0.00100000    T
 <Dec11-2023> <11:03:06>  constrained gradient max            0.00087151     0.00100000    T
 <Dec11-2023> <11:03:06>  constrained gradient rms            0.00024468     0.00066667    T
 <Dec11-2023> <11:03:07>  gradient max                        0.00087151
 <Dec11-2023> <11:03:07>  gradient rms                        0.00024468
 <Dec11-2023> <11:03:07>  cart. step max                      0.00277511     0.01000000    T
 <Dec11-2023> <11:03:07>  cart. step rms                      0.00072330     0.00666667    T
 <Dec11-2023> <11:03:07>  GEOMETRY CONVERGED
 <Dec11-2023> <11:03:07>  Calculating Energy Terms for Final Geometry
  Coordinates in Geometry Cycle 2
    Atom         X           Y           Z   (Angstrom)
    1.W        -1.573601    3.256632   -0.259777
    2.W         1.104243    0.185810    2.708272
    3.W         0.835997   -3.419154   -0.729985
    4.W        -2.350331   -0.553086   -3.381366
    5.W         1.746990    2.594029   -0.080986
    6.W         1.328521   -1.214742   -3.256201
    7.W        -2.807886   -2.635345   -0.936490
    8.W        -2.074540    0.801056    2.505116
    9.W        -0.991496   -2.245856    2.308236
   10.W        -3.928482    0.395271   -0.719454
   11.W         0.054204    2.290716   -3.006875
   12.W         3.005704   -0.917476   -0.320291
   13.O        -0.256154    1.546828   -0.893890
   14.O        -0.545628   -0.336831    1.421936
   15.O         0.837093   -1.174863   -0.910533
   16.O        -2.084989   -0.589934   -1.241035
   17.O        -3.369985    0.395609    1.131528
   18.O         2.714529    1.000179   -0.524924
   19.O        -2.310437   -2.549119    0.925716
   20.O         1.136503    0.689506   -3.287362
   21.O         2.332929   -0.690488    1.455476
   22.O        -1.443396    1.185416   -3.445799
   23.O         0.265433   -3.101876    1.070984
   24.O        -3.013635    2.131412   -0.821872
   25.O        -1.022485   -3.349010   -1.219753
   26.O        -1.692612    2.391119    1.451957
   27.O        -0.554752   -1.298283   -3.576521
   28.O         1.404616    1.775919    1.613063
   29.O         1.555421    3.000317   -1.979567
   30.O        -2.225511   -1.026922    3.206388
   31.O         3.001883   -1.027704   -2.269788
   32.O        -4.373225   -1.498235   -0.584071
   33.O        -1.097004    3.598380   -2.147750
   34.O         2.659016   -2.830474   -0.256231
   35.O        -3.956486    0.317656   -2.689696
   36.O         0.530000   -1.563470    3.361253
   37.O        -0.418648    1.077572    3.534437
   38.O        -2.996601   -2.318623   -2.871467
   39.O         0.244424    3.803364    0.210729
   40.O         1.283760   -3.052772   -2.595126
   41.O        -2.400381    4.767062    0.046937
   42.O         2.224434    0.503032    4.021927
   43.O         1.131253   -5.142792   -0.710153
   44.O        -2.901749   -0.641052   -5.045452
   45.O         3.051181    3.674916    0.312577
   46.O         1.965598   -1.511575   -4.847035
   47.O        -3.715947   -4.133673   -0.942037
   48.O        -3.123850    1.510177    3.715585
   49.O        -1.309396   -3.608886    3.368761
   50.O        -5.581320    0.967294   -0.565433
   51.O         0.325714    3.132643   -4.513985
   52.O         4.730560   -0.957230   -0.043292
   53.H         0.190158   -0.776471   -0.265670
   54.H        -0.755135    0.685625   -0.838911
 <Dec11-2023> <11:03:07>  >>>> CORORT
 <Dec11-2023> <11:03:08>  >>>> CLSMAT
 <Dec11-2023> <11:03:08>  >>>> ORTHON
 <Dec11-2023> <11:03:08>  >>>> GENPT
 <Dec11-2023> <11:03:09>  Block Length= 128
 <Dec11-2023> <11:03:09>  >>>> PTBAS
 <Dec11-2023> <11:03:33>  combining surface points...
 <Dec11-2023> <11:03:33>  combining surface points...
 <Dec11-2023> <11:03:33>  combining surface points...
 <Dec11-2023> <11:03:33>  >>>> CYCLE
 <Dec11-2023> <11:03:57>              |Error|         MaxErr       Wt(A-DIIS)
 <Dec11-2023> <11:03:57>      1      0.11220749      0.00531545
 <Dec11-2023> <11:04:17>      2      0.47188074      0.02597056    100.0
 <Dec11-2023> <11:04:37>      3      0.12275182      0.00554956    100.0
 <Dec11-2023> <11:04:57>      4      0.16699679      0.00874409    100.0
 <Dec11-2023> <11:05:17>      5      0.74187505      0.04009213    100.0
 <Dec11-2023> <11:05:37>      6      0.26162496      0.01307105    100.0
 <Dec11-2023> <11:05:57>      7      0.08129759      0.00369067      2.7
 <Dec11-2023> <11:06:17>      8      0.03254455      0.00197586      1.0
 <Dec11-2023> <11:06:37>      9      0.01237457      0.00075916      0.0
 <Dec11-2023> <11:06:57>     10      0.00495552      0.00024662      0.0
 <Dec11-2023> <11:07:16>     11      0.00282564      0.00010496      0.0
 <Dec11-2023> <11:07:36>     12      0.00066989      0.00003444      0.0
 <Dec11-2023> <11:07:56>     13      0.00025583      0.00000803      0.0
 <Dec11-2023> <11:08:16>     14      0.00023716      0.00001249      0.0
 <Dec11-2023> <11:08:36>     15      0.00009062      0.00000570      0.0
 <Dec11-2023> <11:08:55>     16      0.00002361      0.00000132      0.0
 <Dec11-2023> <11:09:15>     17      0.00003574      0.00000161      0.0
 <Dec11-2023> <11:09:35>     18      0.00001291      0.00000053      0.0
 <Dec11-2023> <11:09:54>     19      0.00000271      0.00000017      0.0
 <Dec11-2023> <11:10:05>  SCF converged
 <Dec11-2023> <11:10:14>     20      0.00000173      0.00000014      0.0
 <Dec11-2023> <11:10:29>  >>>> TOTEN
 <Dec11-2023> <11:13:11>  QTAIM: determining topology...
 <Dec11-2023> <11:14:51>  >>>> POPAN
 <Dec11-2023> <11:14:52>  >>>> DEBYE
 <Dec11-2023> <11:14:52>  >>>> AMETS
 <Dec11-2023> <11:14:53>  >>>> POPUL
 <Dec11-2023> <11:14:55>   Bond Energy         -17.49247925 a.u.
 <Dec11-2023> <11:14:55>   Bond Energy        -475.99457929 eV
 <Dec11-2023> <11:14:55>   Bond Energy      -10976.70       kcal/mol
 <Dec11-2023> <11:14:55>  >>>> ENHESS
 <Dec11-2023> <11:21:17>  === NUCLEUS:     1
 <Dec11-2023> <11:49:46>  === NUCLEUS:     2
 <Dec11-2023> <12:18:30>  === NUCLEUS:     3
 <Dec11-2023> <12:45:59>  === NUCLEUS:     4
 <Dec11-2023> <13:13:17>  === NUCLEUS:     5
 <Dec11-2023> <13:40:29>  === NUCLEUS:     6
 <Dec11-2023> <14:07:00>  === NUCLEUS:     7
 <Dec11-2023> <14:32:58>  === NUCLEUS:     8
 <Dec11-2023> <14:59:07>  === NUCLEUS:     9
 <Dec11-2023> <15:24:11>  === NUCLEUS:    10
 <Dec11-2023> <15:48:56>  === NUCLEUS:    11
 <Dec11-2023> <16:13:39>  === NUCLEUS:    12
 <Dec11-2023> <16:38:21>  === NUCLEUS:    13
 <Dec11-2023> <17:01:51>  === NUCLEUS:    14
 <Dec11-2023> <17:26:30>  === NUCLEUS:    15
 <Dec11-2023> <17:50:28>  === NUCLEUS:    16
 <Dec11-2023> <18:14:56>  === NUCLEUS:    17
 <Dec11-2023> <18:38:22>  === NUCLEUS:    18
 <Dec11-2023> <19:01:41>  === NUCLEUS:    19
 <Dec11-2023> <19:25:06>  === NUCLEUS:    20
 <Dec11-2023> <19:48:25>  === NUCLEUS:    21
 <Dec11-2023> <20:11:47>  === NUCLEUS:    22
 <Dec11-2023> <20:35:06>  === NUCLEUS:    23
 <Dec11-2023> <20:57:53>  === NUCLEUS:    24
 <Dec11-2023> <21:21:08>  === NUCLEUS:    25
 <Dec11-2023> <21:44:24>  === NUCLEUS:    26
 <Dec11-2023> <22:07:10>  === NUCLEUS:    27
 <Dec11-2023> <22:30:23>  === NUCLEUS:    28
 <Dec11-2023> <22:53:38>  === NUCLEUS:    29
 <Dec11-2023> <23:17:23>  === NUCLEUS:    30
 <Dec11-2023> <23:40:38>  === NUCLEUS:    31
 <Dec12-2023> <00:03:51>  === NUCLEUS:    32
 <Dec12-2023> <00:26:32>  === NUCLEUS:    33
 <Dec12-2023> <00:49:45>  === NUCLEUS:    34
 <Dec12-2023> <01:12:58>  === NUCLEUS:    35
 <Dec12-2023> <01:36:11>  === NUCLEUS:    36
 <Dec12-2023> <01:59:23>  === NUCLEUS:    37
 <Dec12-2023> <02:22:01>  === NUCLEUS:    38
 <Dec12-2023> <02:45:45>  === NUCLEUS:    39
 <Dec12-2023> <03:08:57>  === NUCLEUS:    40
 <Dec12-2023> <03:32:08>  === NUCLEUS:    41
 <Dec12-2023> <03:54:48>  === NUCLEUS:    42
 <Dec12-2023> <04:17:27>  === NUCLEUS:    43
 <Dec12-2023> <04:40:05>  === NUCLEUS:    44
 <Dec12-2023> <05:02:42>  === NUCLEUS:    45
 <Dec12-2023> <05:24:46>  === NUCLEUS:    46
 <Dec12-2023> <05:46:19>  === NUCLEUS:    47
 <Dec12-2023> <06:08:23>  === NUCLEUS:    48
 <Dec12-2023> <06:31:00>  === NUCLEUS:    49
 <Dec12-2023> <06:53:37>  === NUCLEUS:    50
 <Dec12-2023> <07:16:15>  === NUCLEUS:    51
 <Dec12-2023> <07:38:19>  === NUCLEUS:    52
 <Dec12-2023> <07:59:51>  === NUCLEUS:    53
 <Dec12-2023> <08:21:55>  === NUCLEUS:    54
 <Dec12-2023> <08:44:31>  >>>> CALC_HESS_PMAT
 <Dec12-2023> <08:56:40>  >>>> CALC_HESS_WMAT
 <Dec12-2023> <08:59:03>  Symmetry  : NOSYM
 <Dec12-2023> <08:59:03>  >>>> FRAGM
 <Dec12-2023> <08:59:03>  Geometry symmetry displacement    1 out of    2
  Coordinates in Geometry Cycle 2
    Atom         X           Y           Z   (Angstrom)
    1.W        -1.573517    3.256642   -0.259615
    2.W         1.104167    0.186015    2.708268
    3.W         0.835900   -3.419171   -0.730138
    4.W        -2.350249   -0.553287   -3.381375
    5.W         1.747080    2.594003   -0.081126
    6.W         1.328643   -1.214628   -3.256193
    7.W        -2.807960   -2.635250   -0.936281
    8.W        -2.074680    0.800875    2.505045
    9.W        -0.991269   -2.245919    2.308306
   10.W        -3.928499    0.395416   -0.719647
   11.W         0.054041    2.290740   -3.006874
   12.W         3.005667   -0.917581   -0.320169
   13.O        -0.256150    1.546833   -0.893873
   14.O        -0.545623   -0.336837    1.421935
   15.O         0.837082   -1.174870   -0.910547
   16.O        -2.084988   -0.589926   -1.241037
   17.O        -3.370004    0.395601    1.131473
   18.O         2.714543    1.000129   -0.524923
   19.O        -2.310405   -2.549102    0.925761
   20.O         1.136485    0.689553   -3.287355
   21.O         2.332881   -0.690509    1.455492
   22.O        -1.443428    1.185401   -3.445764
   23.O         0.265436   -3.101923    1.070934
   24.O        -3.013615    2.131467   -0.821838
   25.O        -1.022541   -3.348977   -1.219784
   26.O        -1.692591    2.391075    1.452009
   27.O        -0.554706   -1.298274   -3.576565
   28.O         1.404668    1.775950    1.613048
   29.O         1.555405    3.000312   -1.979605
   30.O        -2.225473   -1.027033    3.206381
   31.O         3.001907   -1.027698   -2.269752
   32.O        -4.373265   -1.498124   -0.584068
   33.O        -1.097014    3.598414   -2.147666
   34.O         2.658962   -2.830535   -0.256272
   35.O        -3.956458    0.317674   -2.689741
   36.O         0.530047   -1.563457    3.361250
   37.O        -0.418707    1.077552    3.534438
   38.O        -2.996627   -2.318636   -2.871419
   39.O         0.244505    3.803344    0.210766
   40.O         1.283748   -3.052728   -2.595202
   41.O        -2.400285    4.767077    0.047105
   42.O         2.224401    0.503085    4.021925
   43.O         1.131154   -5.142809   -0.710320
   44.O        -2.901723   -0.641107   -5.045451
   45.O         3.051283    3.674874    0.312433
   46.O         1.965722   -1.511442   -4.847029
   47.O        -3.716028   -4.133577   -0.941917
   48.O        -3.123927    1.510020    3.715559
   49.O        -1.309275   -3.608971    3.368766
   50.O        -5.581329    0.967425   -0.565515
   51.O         0.325566    3.132676   -4.513978
   52.O         4.730528   -0.957337   -0.043185
   53.H         0.190146   -0.776481   -0.265685
   54.H        -0.755132    0.685631   -0.838893
 <Dec12-2023> <08:59:04>  >>>> CORORT
 <Dec12-2023> <08:59:04>  >>>> CLSMAT
 <Dec12-2023> <08:59:04>  >>>> ORTHON
 <Dec12-2023> <08:59:05>  >>>> GENPT
 <Dec12-2023> <08:59:05>  Block Length= 128
 <Dec12-2023> <08:59:06>  >>>> PTBAS
 <Dec12-2023> <08:59:29>  combining surface points...
 <Dec12-2023> <08:59:29>  combining surface points...
 <Dec12-2023> <08:59:29>  combining surface points...
 <Dec12-2023> <08:59:29>  >>>> CYCLE
 <Dec12-2023> <08:59:51>              |Error|         MaxErr       Wt(A-DIIS)
 <Dec12-2023> <08:59:51>      1      0.11592088      0.00395589
 <Dec12-2023> <09:00:11>      2      0.47187640      0.01955341    100.0
 <Dec12-2023> <09:00:30>      3      0.12274784      0.00474876    100.0
 <Dec12-2023> <09:00:49>      4      0.16701738      0.00669598    100.0
 <Dec12-2023> <09:01:08>      5      0.74173629      0.03150916    100.0
 <Dec12-2023> <09:01:27>      6      0.26159142      0.01025101    100.0
 <Dec12-2023> <09:01:46>      7      0.08138186      0.00315788      2.2
 <Dec12-2023> <09:02:05>      8      0.03168410      0.00145755      0.5
 <Dec12-2023> <09:02:23>      9      0.01215609      0.00074284      0.0
 <Dec12-2023> <09:02:42>     10      0.00495960      0.00025290      0.0
 <Dec12-2023> <09:03:01>     11      0.00282501      0.00011318      0.0
 <Dec12-2023> <09:03:19>     12      0.00067039      0.00003428      0.0
 <Dec12-2023> <09:03:38>     13      0.00025464      0.00000854      0.0
 <Dec12-2023> <09:03:57>     14      0.00023572      0.00001009      0.0
 <Dec12-2023> <09:04:15>     15      0.00009129      0.00000450      0.0
 <Dec12-2023> <09:04:34>     16      0.00002279      0.00000101      0.0
 <Dec12-2023> <09:04:52>     17      0.00003660      0.00000126      0.0
 <Dec12-2023> <09:05:11>     18      0.00001208      0.00000048      0.0
 <Dec12-2023> <09:05:29>     19      0.00000329      0.00000017      0.0
 <Dec12-2023> <09:05:39>  SCF converged
 <Dec12-2023> <09:05:48>     20      0.00000166      0.00000009      0.0
 <Dec12-2023> <09:05:58>  >>>> TOTEN
 <Dec12-2023> <09:06:06>  >>>> POPAN
 <Dec12-2023> <09:06:06>  >>>> DEBYE
 <Dec12-2023> <09:06:07>  >>>> ENGRAD
 <Dec12-2023> <09:07:13>  Geometry symmetry displacement    2 out of    2
  Coordinates in Geometry Cycle 2
    Atom         X           Y           Z   (Angstrom)
    1.W        -1.573686    3.256622   -0.259939
    2.W         1.104319    0.185606    2.708275
    3.W         0.836094   -3.419138   -0.729832
    4.W        -2.350412   -0.552884   -3.381357
    5.W         1.746900    2.594055   -0.080845
    6.W         1.328399   -1.214856   -3.256209
    7.W        -2.807811   -2.635441   -0.936698
    8.W        -2.074399    0.801237    2.505186
    9.W        -0.991722   -2.245793    2.308166
   10.W        -3.928464    0.395125   -0.719261
   11.W         0.054368    2.290693   -3.006876
   12.W         3.005741   -0.917371   -0.320413
   13.O        -0.256159    1.546824   -0.893908
   14.O        -0.545633   -0.336826    1.421936
   15.O         0.837103   -1.174856   -0.910518
   16.O        -2.084989   -0.589942   -1.241033
   17.O        -3.369967    0.395617    1.131584
   18.O         2.714515    1.000230   -0.524926
   19.O        -2.310470   -2.549137    0.925670
   20.O         1.136520    0.689458   -3.287369
   21.O         2.332977   -0.690468    1.455461
   22.O        -1.443364    1.185431   -3.445834
   23.O         0.265430   -3.101829    1.071034
   24.O        -3.013655    2.131356   -0.821906
   25.O        -1.022429   -3.349042   -1.219723
   26.O        -1.692633    2.391163    1.451905
   27.O        -0.554797   -1.298291   -3.576477
   28.O         1.404564    1.775889    1.613078
   29.O         1.555436    3.000321   -1.979529
   30.O        -2.225549   -1.026812    3.206395
   31.O         3.001859   -1.027709   -2.269825
   32.O        -4.373185   -1.498347   -0.584074
   33.O        -1.096994    3.598346   -2.147834
   34.O         2.659070   -2.830413   -0.256191
   35.O        -3.956514    0.317639   -2.689650
   36.O         0.529953   -1.563483    3.361256
   37.O        -0.418590    1.077592    3.534436
   38.O        -2.996575   -2.318611   -2.871514
   39.O         0.244343    3.803383    0.210693
   40.O         1.283772   -3.052816   -2.595050
   41.O        -2.400476    4.767048    0.046769
   42.O         2.224467    0.502980    4.021929
   43.O         1.131352   -5.142775   -0.709985
   44.O        -2.901775   -0.640997   -5.045453
   45.O         3.051079    3.674958    0.312722
   46.O         1.965475   -1.511707   -4.847041
   47.O        -3.715867   -4.133770   -0.942157
   48.O        -3.123773    1.510335    3.715610
   49.O        -1.309518   -3.608802    3.368756
   50.O        -5.581312    0.967163   -0.565352
   51.O         0.325861    3.132609   -4.513992
   52.O         4.730593   -0.957122   -0.043399
   53.H         0.190169   -0.776461   -0.265656
   54.H        -0.755137    0.685619   -0.838929
 <Dec12-2023> <09:07:14>  >>>> CORORT
 <Dec12-2023> <09:07:14>  >>>> CLSMAT
 <Dec12-2023> <09:07:14>  >>>> ORTHON
 <Dec12-2023> <09:07:15>  >>>> GENPT
 <Dec12-2023> <09:07:15>  Block Length= 128
 <Dec12-2023> <09:07:16>  >>>> PTBAS
 <Dec12-2023> <09:07:39>  combining surface points...
 <Dec12-2023> <09:07:39>  combining surface points...
 <Dec12-2023> <09:07:39>  combining surface points...
 <Dec12-2023> <09:07:39>  >>>> CYCLE
 <Dec12-2023> <09:08:01>              |Error|         MaxErr       Wt(A-DIIS)
 <Dec12-2023> <09:08:01>      1      0.12641258      0.00466532
 <Dec12-2023> <09:08:20>      2      0.47188522      0.01955073    100.0
 <Dec12-2023> <09:08:40>      3      0.12275486      0.00474653    100.0
 <Dec12-2023> <09:08:59>      4      0.16698261      0.00669420    100.0
 <Dec12-2023> <09:09:18>      5      0.74196799      0.03151719    100.0
 <Dec12-2023> <09:09:37>      6      0.26164815      0.01025398    100.0
 <Dec12-2023> <09:09:56>      7      0.08123651      0.00315033      2.2
 <Dec12-2023> <09:10:15>      8      0.03167431      0.00145667      0.5
 <Dec12-2023> <09:10:33>      9      0.01215568      0.00074274      0.0
 <Dec12-2023> <09:10:52>     10      0.00495866      0.00025289      0.0
 <Dec12-2023> <09:11:11>     11      0.00282489      0.00011316      0.0
 <Dec12-2023> <09:11:30>     12      0.00067051      0.00003428      0.0
 <Dec12-2023> <09:11:48>     13      0.00025486      0.00000857      0.0
 <Dec12-2023> <09:12:07>     14      0.00023595      0.00001010      0.0
 <Dec12-2023> <09:12:25>     15      0.00009136      0.00000448      0.0
 <Dec12-2023> <09:12:44>     16      0.00002280      0.00000101      0.0
 <Dec12-2023> <09:13:03>     17      0.00003659      0.00000126      0.0
 <Dec12-2023> <09:13:21>     18      0.00001209      0.00000048      0.0
 <Dec12-2023> <09:13:40>     19      0.00000331      0.00000017      0.0
 <Dec12-2023> <09:13:49>  SCF converged
 <Dec12-2023> <09:13:58>     20      0.00000166      0.00000009      0.0
 <Dec12-2023> <09:14:09>  >>>> TOTEN
 <Dec12-2023> <09:14:16>  >>>> POPAN
 <Dec12-2023> <09:14:17>  >>>> DEBYE
 <Dec12-2023> <09:14:17>  >>>> ENGRAD
 <Dec12-2023> <09:15:24>  Old frequency:    -19.45746, new:    -19.94900
 <Dec12-2023> <09:15:24>  NOTE: Some frequencies have been re-calculated by numerical differentiation
 <Dec12-2023> <09:15:24>        Check the text output file for new values!
 <Dec12-2023> <09:15:25>  NORMAL TERMINATION
 <Dec12-2023> <09:15:26>  END
