
 *******************************************************************************
 *                                                                             *
 *  -------------------------------------                                      *
 *   Amsterdam Density Functional  (ADF)         2019                          *
 *  -------------------------------------                                      *
 *                                               r79301 2019-11-09             *
 *                                                                             *
 *                                                                             *
 *                            =====================                            *
 *                            |                   |                            *
 *                            |     D I R A C     |                            *
 *                            |                   |                            *
 *                            =====================                            *
 *                                                                             *
 *                                                                             *
 *   Online information and documentation:  https://www.scm.com/support/       *
 *   E-mail:  support@scm.com   info@scm.com                                   *
 *                                                                             *
 *   Scientific publications using ADF results must be properly referenced     *
 *   See the User Manuals (or the web site) for recommended citations          *
 *   The terms and conditions of the End User License Agreement apply to       *
 *   the use of ADF, https://www.scm.com/license-terms/                        *
 *                                                                             *
 **********************  x86_64_linux_intel / intelmpi  ************************
 
 
 
  
 DIRAC 2019  RunTime: Oct18-2020 22:34:29  Nodes: 1  Procs: 1

 Temporary files are created in /scratch/kid_0.985168954 (0x58465342)

1
 HYDROGEN ATOM RELATIVISTIC, Point Nuc, A and c from libtc   
 N J RN H ZN XION ANUC CLIGHT
 5000    1100.00000000197.36710137  1.00000000  0.00000000    1.007825  0.1370360E+03
  PH   PHI     EPS        DEL        DELRVR
  0.30  0.30     2500.00  0.00001000  0.00001000
 IDIRC  NC1  NDEBU NPRIN  IPUN IRCOR IWCOR
   1   300     0     0     0     0     0
   XALPHA      XLATTER      RNUC
  0.70000000  0.00000000  0.00000000 Point Charge
   XN   XL   XJ      XE          XZ      XDELL
  1.0  0.0  0.5      -1.000       1.000     0.00000
 ICORP=  0  NPCL=  0  DEMP=0.00  PEPS=0.000000
 R(1)=  0.1000000E-08 D=  0.1005080E+01 RNUC=  0.0000000E+00
 converged at cycle   32  DENSITY AVERAGING    0.2400
  MAXIMUM ERROR IN R.V(R) IS   0.79874357E-05
 Q,EY,EV,EZ,ESUM,ETOT,RHO  0.100000E+01 -0.266614E+00 -0.619969E+00 -0.910779E+00 -0.203940E+00 -0.415998E+00  0.337036E-17


 DIRAC CALCULATION
1                    HYDROGEN ATOM RELATIVISTIC, Point Nuc, A and c from libtc


 EXCHANGE COEFFICIENT=  0.7000000           TAIL CORRECTION=  0.           NUCLEAR RADIUS=  0.000E+00
0                       ORBITAL    N    L    J     ELECTRONS     EIGENVALUE                DELTA OF EIGENV.

                          1S1/2  1.0  0.0  0.5     1.000       -0.2039397E+00                 0.2720093E-06


                                        NUCLEAR CHARGE=    1.000000
                            INTEGRAL OF CHARGE DENSITY=    1.000000
                           SUM OF THE ORBITAL ENERGIES=     -0.2039
                                          TOTAL ENERGY=     -0.4160
                                        KINETIC ENERGY=      0.4160
                             NUCLEAR ATTRACTION ENERGY=     -0.9108
                             ELECTRON REPULSION ENERGY=      0.2787
                                       EXCHANGE ENERGY=     -0.2000

 *******************************************************************************

                             D I R A C   E X I T
 NORMAL TERMINATION



 =================
 Timing Statistics
 =================
  
 Total Used :                     CPU=        0.06      System=        0.00     Elapsed=        0.07

 Calls  Section                     ( Mean, Percentage )
 ---------------------------------------------------------------------------------------------------
     2  ><      ................      0.00    0.00             0.00    0.00             0.00    0.01
     1  EXIT PROCEDURE .........      0.06  100.00             0.00    0.00             0.07   99.99


 Currently Open Files (EXIT00)
 ====================

 Unit    Access Format  Status   Type       Ident (file)
 -------------------------------------------------------
   3      SEQ    FORM   TRANSP  NORMAL      LOGFILE
                                          ( logfile )
 
Create H   file=TZP-H
XC
  GGA PBE
End
relativistic ZORA
Corepotentials t12.rel
End

 *******************************************************************************
 *                                                                             *
 *  -------------------------------------                                      *
 *   Amsterdam Density Functional  (ADF)         2019                          *
 *  -------------------------------------                                      *
 *                                               r79301 2019-11-09             *
 *                                                                             *
 *                                                                             *
 *                              =================                              *
 *                              |               |                              *
 *                              |     A D F     |                              *
 *                              |               |                              *
 *                              =================                              *
 *                                                                             *
 *                                                                             *
 *   Online information and documentation:  https://www.scm.com/support/       *
 *   E-mail:  support@scm.com   info@scm.com                                   *
 *                                                                             *
 *   Scientific publications using ADF results must be properly referenced     *
 *   See the User Manuals (or the web site) for recommended citations          *
 *   The terms and conditions of the End User License Agreement apply to       *
 *   the use of ADF, https://www.scm.com/license-terms/                        *
 *                                                                             *
 **********************  x86_64_linux_intel / intelmpi  ************************
 
 
 
  
 ADF 2019  RunTime: Oct18-2020 22:34:29  Nodes: 1  Procs: 1

 Temporary files are created in /scratch/kid_0.1769216062 (0x58465342)

 Hydrogen (TZP)



 ===========================
 A T T A C H E D   F I L E S
 ===========================
  
 CREATE - Data File:    TZP-H
                        Hydrogen (TZP)
 Core Potentials:
         file : t12.rel



 ===============================
 M O D E L   P A R A M E T E R S
 ===============================
  
 DENSITY FUNCTIONAL POTENTIAL (scf)
    LDA:                               PW92                                    == Not Default ==
    Gradient Corrections:              PBEc PBEx                               == Not Default ==

 SPIN  (restricted / unrestr.)
    Molecule:                          Restricted                               

 OTHER ASPECTS
    Relativistic Corrections:          scalar (ZORA,MAPA)                      == Not Default ==

    Nuclear Charge Density Model:      Point Charge Nuclei                      
    Core Treatment:                    Frozen Orbital(s)                        

    Hyperfine or Zeeman Interaction:   ---                                      



 =====================================
 S Y M M E T R Y ,   E L E C T R O N S
 =====================================
  
 Symmetry: ATOM

 Irreducible Representations, including subspecies
 -------------------------------------------------
 S
 P:x  P:y  P:z
 D:z2  D:x2-y2  D:xy  D:xz  D:yz
 F:z3  F:z  F:xyz  F:z2x  F:z2y  F:x  F:y


 Configuration of Valence Electrons
 ==================================

          Occupation Numbers
          -------------------------------------------------
 S        1
 P        0
 D        0
 F        0
          -------------------------------------------------

 Total:   1

 Net Charge: 0 (Nuclei minus Electrons)

 Preset values for MO occupations will be applied through SCF cycle no. 1000000
 Thereafter, the program will assign electrons to MOs that are spatially
 similar to the occupied MOs in a "reference" cycle ("KeepOrbitals").
 The reference cycle is always the PREVIOUS cycle: it will evolve with
 the SCF procedure.



 ================================
 (Slater-type)  F U N C T I O N S  ***  (Basis and Fit)  ***
 ================================
  

 Atom Type    1  (H)
 ==============

 Valence Basis Sets:   4
 -----------------------
   1 S    0.690000
   1 S    0.920000
   1 S    1.580000
   2 P    1.250000


 BAS: List of all Elementary Cartesian Basis Functions
 =====================================================

 The numbering in the list below (to the right of the function characteristics) is referred
 to in print-outs of MO eigenvectors and Mulliken populations in the BAS representation
 (as contrasted to the SFO representation).

 Notes:
 1. The functions are characterized by a polynomial prefactor (powers of x,y,z and r) and
    an exponential decay factor alpha.
 2. Since the basis sets are specific for an atom TYPE, the individual functions occur on
    all atoms of that type.
 3. The word 'Core' in the left margin signals that it is a Core Function (CF) : not a
    degree of freedom in the valence set, but only used to ensure orthogonalization of
    the other valence basis functions on the frozen Core Orbitals.


 (power of) X  Y  Z  R     Alpha  on Atom
            ==========     =====     ==========

 H                                    1
                                  ---------------------------------------------------------------------------
            0  0  0  0     0.690      1
            0  0  0  0     0.920      2
            0  0  0  0     1.580      3
            1  0  0  0     1.250      4
            0  1  0  0     1.250      5
            0  0  1  0     1.250      6

 Total number of charge fitting functions (nprimf)        50
 Total number of Cartesian basis functions (naos)          6
 Total number of Cartesian core functions  (ncos)          0



 BAS: List of all Elementary Cartesian Basis Functions
 =====================================================

 The numbering in the list below (to the right of the function characteristics) is referred
 to in print-outs of MO eigenvectors and Mulliken populations in the BAS representation
 (as contrasted to the SFO representation).

 Notes:
 1. The functions are characterized by a polynomial prefactor (powers of x,y,z and r) and
    an exponential decay factor alpha.
 2. Since the basis sets are specific for an atom TYPE, the individual functions occur on
    all atoms of that type.
 3. The word 'Core' in the left margin signals that it is a Core Function (CF) : not a
    degree of freedom in the valence set, but only used to ensure orthogonalization of
    the other valence basis functions on the frozen Core Orbitals.


 (power of) X  Y  Z  R     Alpha  on Atom
            ==========     =====     ==========

 H                                    1
                                  ---------------------------------------------------------------------------
            0  0  0  0     0.690      1
            0  0  0  0     0.920      2
            0  0  0  0     1.580      3
            1  0  0  0     1.250      4
            0  1  0  0     1.250      5
            0  0  1  0     1.250      6
1
 ***************************************************************************************************



                                              ***********************
                                              *  T E C H N I C A L  *
                                              ***********************
  



 =============================================================
 P A R A L L E L I Z A T I O N  and  V E C T O R I Z A T I O N
 =============================================================
  
 Nr of parallel processes:                                1
 Maximum vector length in NumInt loops:                 128



 =====================
 S C F   U P D A T E S
 =====================
  
 Max. nr. of cycles:                               300
 Convergence criterion:                              0.0000000100
   secondary criterion:                              0.0000000100

 Mix parameter (when DIIS does not apply):           0.2000000000
 Special mix parameter for the first cycle:          1.0000000000
 Mixed ADIIS+SDIIS will be used                  
    Max number of expansion vectors:                10
    Pure ADIIS when Max([F,P]) is above              0.1000000000
    Pure SDIIS when Max([F,P]) is below              0.0010000000
 Automatic ElectronSmearing (in case of problematic SCF convergence) disabled



 =================
 P R E C I S I O N  ***  (General: NumInt, NeglectFunctionTails, ...)  ***
 =================
  

 NumInt:           Target precision:                12.0000000000
 -------           Initial precision:               10.0000000000
                   Min. precision (optimization):   10.0000000000

 Neglect Functions:          Basis functions:        0.1000000000E-13
 ------------------          Fit functions:          0.1000000000E-13



 ===========================
 L I N E A R   S C A L I N G
 ===========================
  

 Cut-off radii density fit:                        0.1000000000E-97
 Overlap cut-off criterion AO matrix elements:     0.1000000000E-97
 Cut-offs for Coulomb potential and fitted density:0.1000000000E-97
 Cut-off criterion for Coulomb multipole terms:    0.1000000000E-97
 Progressive Convergence parameter:                 0.000000000    
1
 ***************************************************************************************************



                                            ***************************
                                            *  C O M P U T A T I O N  *
                                            ***************************
  

 Number of elements of the density matrix on this node (used, total):        21        21



 ===========================================
 Numerical Integration : Fuzzy Cells (Becke)
 ===========================================
  
 Becke grid quality: VERYGOOD       
  
 Lebedev angular grid order:             min:  13 max:  41
 Nr. of radial points:                   min:  64 max:  64

 Total nr. of points:         64
 Nr. of blocks:                1
 Block length:                64
 Nr. of dummy points:          0


 Test of Precision of the Numerical Integration Grid
 ===================================================

 Integral of the Total Core Density:                   0.00000000000000



 ========================
 Density Fitting (zlmFit)
 ========================
  
 ZlmFit Fit Quality: VERYGOOD       
  
 Max L-expansion:                        min:   0 max:   0
 Nr. of radial interpolation points:     min: 120 max: 120



 =====
 S C F  ***  ScaSCF  ***
 =====
  

 CYCLE    1
 SCF Error: norm([F,P])=      0.000000000000, max([F,P])=      0.000000000000
 orbitals (Q,E):
 ---------------
 S :1...3            ( 1.00    -0.5000)  ( 0.00    -0.0900)  ( 0.00     1.2936)
 P :1...1            ( 0.00     0.1562)

 CYCLE    2
 SCF Error: norm([F,P])=      0.031537872292, max([F,P])=      0.030110494752
 orbitals (Q,E):
 ---------------
 S :1...2            ( 1.00    -0.2218)  ( 0.00     0.1019)
 P :1...1            ( 0.00     0.4189)

 CYCLE    3
  SDIIS (wt  0.000):  0.1996  0.8004
 A-DIIS (wt  1.000):  0.0000  1.0000
  DIIS coefficients:  0.0000  1.0000
 SCF Error: norm([F,P])=      0.008617989401, max([F,P])=      0.008343029399
 orbitals (Q,E):
 ---------------
 S :1...2            ( 1.00    -0.2422)  ( 0.00     0.0889)
 P :1...1            ( 0.00     0.4024)

 CYCLE    4
  SDIIS (wt  0.993):  0.1666  0.8334
 A-DIIS (wt  0.007):  0.0000  1.0000
  DIIS coefficients:  0.1654  0.8346
 SCF Error: norm([F,P])=      0.001732350026, max([F,P])=      0.001718616814
 orbitals (Q,E):
 ---------------
 S :1...2            ( 1.00    -0.2385)  ( 0.00     0.0908)
 P :1...1            ( 0.00     0.4054)

 CYCLE    5
  SDIIS (wt  1.000):  0.0236  0.9764
  DIIS coefficients:  0.0236  0.9764
 SCF Error: norm([F,P])=      0.000043673449, max([F,P])=      0.000039769875
 orbitals (Q,E):
 ---------------
 S :1...2            ( 1.00    -0.2386)  ( 0.00     0.0908)
 P :1...1            ( 0.00     0.4054)

 CYCLE    6
  SDIIS (wt  1.000): -0.0577  1.0577
  DIIS coefficients: -0.0577  1.0577
 SCF Error: norm([F,P])=      0.000002383805, max([F,P])=      0.000002158128
 orbitals (Q,E):
 ---------------
 S :1...2            ( 1.00    -0.2386)  ( 0.00     0.0908)
 P :1...1            ( 0.00     0.4054)

 CYCLE    7
  SDIIS (wt  1.000): -0.0032  1.0032
  DIIS coefficients: -0.0032  1.0032
 SCF Error: norm([F,P])=      0.000000007721, max([F,P])=      0.000000007228
 orbitals (Q,E):
 ---------------
 S :1...2            ( 1.00    -0.2386)  ( 0.00     0.0908)
 P :1...1            ( 0.00     0.4054)

 SCF CONVERGED

 CYCLE    8
1
 ***************************************************************************************************



                                                *******************
                                                *  R E S U L T S  *
                                                *******************
  
 *** Using FIT density in Focky
  SDIIS (wt  1.000):  0.0192  0.9808
  DIIS coefficients:  0.0192  0.9808
 SCF Error: norm([F,P])=      0.000000000151, max([F,P])=      0.000000000141

 Scaled ZORA Orbital Energies, per Irrep and Spin:
 =================================================
                        Occup              E (au)              E (eV)       Diff (eV) with prev. cycle
                        -----      --------------------        ------       --------------------------
 S
               1        1.000     -0.23861775226993E+00        -6.493               7.43E-09
               2        0.000      0.90791701709251E-01         2.471
               3        0.000      0.15217530108908E+01        41.409
 P
               1        0.000      0.40537978060393E+00        11.031


 Partially Occupied:
               1 S                -0.23861775226993E+00
  
 LUMO :        2 S                 0.90791701709251E-01
  


 Orbital Energies, all Irreps
 ========================================

 Irrep        no.  (spin)   Occup              E (au)                E (eV)
 ---------------------------------------------------------------------------
 S             1             1.00       -0.23861775226993E+00        -6.4931
 S             2             0.00        0.90791701709251E-01         2.4706
 P             1             0.00        0.40537978060393E+00        11.0309
 S             3             0.00        0.15217530108908E+01        41.4090


 All Electron Calculation, thus no Orbital Energies of the Core Orbitals are calculated



 =======================================
 M U L L I K E N   P O P U L A T I O N S
 =======================================
  
 The survey below gives for each atom:
 a) the total charge (Z minus electrons)
 b) the net spin polarization (nr of electrons spin-A minus spin-B)
 c) for each spin the atomic electron valence density (integrated) per L-value.

 Atom              Charge    Spin density          S         P         D         F
 ----              ------    ------------       ------    ------    ------    ------
 1 H              -0.0000                       1.0000    0.0000    0.0000    0.0000

 Populations of individual BAS functions
 ----------------------------------------
 1 H            0.2104  0.6788  0.1107  0.0000  0.0000  0.0000

 Gross Charges per Atom (Z minus electrons)
 ==========================================
            -0.0000
 Net Total: -0.00000000



 =======================================================================
 Electrostatic potential at the Nuclei due to electrons and other nuclei
 =======================================================================
  
         Atom                  Potential
         ----                  ---------
     1)   H                   0.94468022
 
 
 ========================
 No memory problems found
 ========================
 
 Maximum number of active allocate calls:         306
 
 *******************************************************************************

                             A D F   E X I T
 NORMAL TERMINATION



 =================
 Timing Statistics
 =================
  
 Total Used :                     CPU=        0.34      System=        0.01     Elapsed=        0.38

 Calls  Section                     ( Mean, Percentage )
 ---------------------------------------------------------------------------------------------------
     3  ><      ................      0.00    1.18             0.00    0.00             0.00    1.14
     1  INIT    ................      0.07   21.18             0.00    0.00             0.08   20.22
     1  GEOMET  ................      0.02    4.71             0.00    0.00             0.02    5.88
     1  INPUTA  ................      0.00    1.18             0.00    0.00             0.00    0.88
     1  MAINSY  ................      0.00    1.18             0.00   33.33             0.01    3.90
     1  SYMFIT  ................      0.00    0.00             0.00   33.34             0.00    0.42
     1  CORORT  ................      0.00    0.00             0.00    0.00             0.00    0.33
     1  SYMORB  ................      0.00    0.00             0.00    0.00             0.00    0.18
     1  CLSMAT  ................      0.00    1.18             0.00    0.00             0.01    1.36
     1  ORTHON  ................      0.00    1.18             0.00    0.00             0.00    1.22
     1  GENPT   ................      0.01    3.53             0.00    0.00             0.01    3.23
     1  PTBAS   ................      0.00    1.18             0.00    0.00             0.01    1.34
     8  FOCKY   ................      0.02   48.23             0.00    0.00             0.02   44.35
     8  FOCKTR  ................      0.00    0.00             0.00    0.00             0.00    1.23
     8  SDIIS   ................      0.00    7.06             0.00    0.00             0.00    5.62
     1  COREPS  ................      0.01    3.53             0.00   33.33             0.01    3.64
     1  POPAN   ................      0.00    1.18             0.00    0.00             0.00    1.22
     1  DEBYE   ................      0.00    0.00             0.00    0.00             0.00    0.48
     1  EXIT PROCEDURE .........      0.01    3.53             0.00    0.00             0.01    3.34


 Currently Open Files (EXIT00)
 ====================

 Unit    Access Format  Status   Type       Ident (file)
 -------------------------------------------------------
   3      SEQ    FORM   TRANSP  NORMAL      LOGFILE
                                          ( logfile )

 ***************************************************************************************************
 (LOGFILE)
 <Oct18-2020> <22:34:29>  DIRAC 2019  RunTime: Oct18-2020 22:34:29  Nodes: 1  Procs: 1
 <Oct18-2020> <22:34:29>  NORMAL TERMINATION
 <Oct18-2020> <22:34:29>  END
 <Oct18-2020> <22:34:29>  ADF 2019  RunTime: Oct18-2020 22:34:29  Nodes: 1  Procs: 1
 <Oct18-2020> <22:34:29>  Hydrogen (TZP)
 <Oct18-2020> <22:34:29>  RunType   : CREATE
 <Oct18-2020> <22:34:29>  Net Charge: 0 (Nuclei minus Electrons)
 <Oct18-2020> <22:34:29>  Symmetry  : ATOM
  Coordinates
    Atom         X           Y           Z   (Angstrom)
    1.H         0.000000    0.000000    0.000000
 <Oct18-2020> <22:34:29>  >>>> CORORT
 <Oct18-2020> <22:34:29>  >>>> CLSMAT
 <Oct18-2020> <22:34:29>  >>>> ORTHON
 <Oct18-2020> <22:34:29>  >>>> GENPT
 <Oct18-2020> <22:34:29>  Block Length=  64
 <Oct18-2020> <22:34:29>  >>>> PTBAS
 <Oct18-2020> <22:34:29>  >>>> CYCLE
 <Oct18-2020> <22:34:30>              |Error|         MaxErr       Wt(A-DIIS)
 <Oct18-2020> <22:34:30>      1      0.00000000      0.00000000
 <Oct18-2020> <22:34:30>      2      0.03153787      0.03011049
 <Oct18-2020> <22:34:30>      3      0.00861799      0.00834303    100.0
 <Oct18-2020> <22:34:30>      4      0.00173235      0.00171862      0.7
 <Oct18-2020> <22:34:30>      5      0.00004367      0.00003977      0.0
 <Oct18-2020> <22:34:30>      6      0.00000238      0.00000216      0.0
 <Oct18-2020> <22:34:30>      7      0.00000001      0.00000001      0.0
 <Oct18-2020> <22:34:30>  SCF converged
 <Oct18-2020> <22:34:30>      8      0.00000000      0.00000000      0.0
 <Oct18-2020> <22:34:30>  >>>> POPAN
 <Oct18-2020> <22:34:30>  >>>> DEBYE
 <Oct18-2020> <22:34:30>  NORMAL TERMINATION
 <Oct18-2020> <22:34:30>  END

 *******************************************************************************
 *                                                                             *
 *  -------------------------------------                                      *
 *   Amsterdam Density Functional  (ADF)         2019                          *
 *  -------------------------------------                                      *
 *                                               r79301 2019-11-09             *
 *                                                                             *
 *                                                                             *
 *                            =====================                            *
 *                            |                   |                            *
 *                            |     D I R A C     |                            *
 *                            |                   |                            *
 *                            =====================                            *
 *                                                                             *
 *                                                                             *
 *   Online information and documentation:  https://www.scm.com/support/       *
 *   E-mail:  support@scm.com   info@scm.com                                   *
 *                                                                             *
 *   Scientific publications using ADF results must be properly referenced     *
 *   See the User Manuals (or the web site) for recommended citations          *
 *   The terms and conditions of the End User License Agreement apply to       *
 *   the use of ADF, https://www.scm.com/license-terms/                        *
 *                                                                             *
 **********************  x86_64_linux_intel / intelmpi  ************************
 
 
 
  
 DIRAC 2019  RunTime: Oct18-2020 22:34:30  Nodes: 1  Procs: 1

 Temporary files are created in /scratch/kid_0.825395215 (0x58465342)

1
 OXYGEN ATOM 1s CORE RELATIVISTIC, Point Nuc, A and c from li
 N J RN H ZN XION ANUC CLIGHT
 5000    4100.00000000197.36710137  8.00000000  0.00000000   15.994914  0.1370360E+03
  PH   PHI     EPS        DEL        DELRVR
  0.30  0.30     2500.00  0.00001000  0.00001000
 IDIRC  NC1  NDEBU NPRIN  IPUN IRCOR IWCOR
   1   300     0     0     0     0     1
   XALPHA      XLATTER      RNUC
  0.70000000  0.00000000  0.00000000 Point Charge
   XN   XL   XJ      XE          XZ      XDELL
  1.0  0.0  0.5      -5.000       2.000     0.00000
  2.0  0.0  0.5      -1.000       2.000     0.00000
  2.0  1.0  0.5      -1.000       2.000     0.00000
  2.0  1.0  1.5      -1.000       2.000     0.00000
 ICORP=  0  NPCL=  0  DEMP=0.00  PEPS=0.000000
 R(1)=  0.1000000E-08 D=  0.1005080E+01 RNUC=  0.0000000E+00
 converged at cycle   28  DENSITY AVERAGING    0.2400
  MAXIMUM ERROR IN R.V(R) IS   0.81125670E-05
 Q,EY,EV,EZ,ESUM,ETOT,RHO  0.800000E+01 -0.101247E+02 -0.114961E+03 -0.177573E+03 -0.405053E+02 -0.743427E+02  0.414766E-14


 DIRAC CALCULATION
1                    OXYGEN ATOM 1s CORE RELATIVISTIC, Point Nuc, A and c from libtc


 EXCHANGE COEFFICIENT=  0.7000000           TAIL CORRECTION=  0.           NUCLEAR RADIUS=  0.000E+00
0                       ORBITAL    N    L    J     ELECTRONS     EIGENVALUE                DELTA OF EIGENV.

                          1S1/2  1.0  0.0  0.5     2.000       -0.1880014E+02                 0.7264358E-06
                          2S1/2  2.0  0.0  0.5     2.000       -0.8412236E+00                 0.5932752E-05
                          2P1/2  2.0  1.0  0.5     2.000       -0.3063203E+00                 0.5998471E-05
                          2P3/2  2.0  1.0  1.5     2.000       -0.3049609E+00                 0.5986971E-05


                                        NUCLEAR CHARGE=    8.000000
                            INTEGRAL OF CHARGE DENSITY=    8.000000
                           SUM OF THE ORBITAL ENERGIES=    -40.5053
                                          TOTAL ENERGY=    -74.3427
                                        KINETIC ENERGY=     74.4552
                             NUCLEAR ATTRACTION ENERGY=   -177.5730
                             ELECTRON REPULSION ENERGY=     36.3686
                                       EXCHANGE ENERGY=     -7.5935

 *******************************************************************************

                             D I R A C   E X I T
 NORMAL TERMINATION



 =================
 Timing Statistics
 =================
  
 Total Used :                     CPU=        0.10      System=        0.00     Elapsed=        0.11

 Calls  Section                     ( Mean, Percentage )
 ---------------------------------------------------------------------------------------------------
     2  ><      ................      0.00    0.00             0.00    0.00             0.00    0.01
     1  EXIT PROCEDURE .........      0.10  100.00             0.00  100.00             0.11   99.99


 Currently Open Files (EXIT00)
 ====================

 Unit    Access Format  Status   Type       Ident (file)
 -------------------------------------------------------
   3      SEQ    FORM   TRANSP  NORMAL      LOGFILE
                                          ( logfile )
 
Create O   file=TZP-O.1s
XC
  GGA PBE
End
relativistic ZORA
Corepotentials t12.rel
End

 *******************************************************************************
 *                                                                             *
 *  -------------------------------------                                      *
 *   Amsterdam Density Functional  (ADF)         2019                          *
 *  -------------------------------------                                      *
 *                                               r79301 2019-11-09             *
 *                                                                             *
 *                                                                             *
 *                              =================                              *
 *                              |               |                              *
 *                              |     A D F     |                              *
 *                              |               |                              *
 *                              =================                              *
 *                                                                             *
 *                                                                             *
 *   Online information and documentation:  https://www.scm.com/support/       *
 *   E-mail:  support@scm.com   info@scm.com                                   *
 *                                                                             *
 *   Scientific publications using ADF results must be properly referenced     *
 *   See the User Manuals (or the web site) for recommended citations          *
 *   The terms and conditions of the End User License Agreement apply to       *
 *   the use of ADF, https://www.scm.com/license-terms/                        *
 *                                                                             *
 **********************  x86_64_linux_intel / intelmpi  ************************
 
 
 
  
 ADF 2019  RunTime: Oct18-2020 22:34:30  Nodes: 1  Procs: 1

 Temporary files are created in /scratch/kid_0.342916800 (0x58465342)

 Oxygen (TZP, 1s frozen)



 ===========================
 A T T A C H E D   F I L E S
 ===========================
  
 CREATE - Data File:    TZP-O.1s
                        Oxygen (TZP, 1s frozen)
 Core Potentials:
         file : t12.rel



 ===============================
 M O D E L   P A R A M E T E R S
 ===============================
  
 DENSITY FUNCTIONAL POTENTIAL (scf)
    LDA:                               PW92                                    == Not Default ==
    Gradient Corrections:              PBEc PBEx                               == Not Default ==

 SPIN  (restricted / unrestr.)
    Molecule:                          Restricted                               

 OTHER ASPECTS
    Relativistic Corrections:          scalar (ZORA,MAPA)                      == Not Default ==

    Nuclear Charge Density Model:      Point Charge Nuclei                      
    Core Treatment:                    Frozen Orbital(s)                        

    Hyperfine or Zeeman Interaction:   ---                                      



 =====================================
 S Y M M E T R Y ,   E L E C T R O N S
 =====================================
  
 Symmetry: ATOM

 Irreducible Representations, including subspecies
 -------------------------------------------------
 S
 P:x  P:y  P:z
 D:z2  D:x2-y2  D:xy  D:xz  D:yz
 F:z3  F:z  F:xyz  F:z2x  F:z2y  F:x  F:y


 Configuration of Valence Electrons
 ==================================

          Occupation Numbers
          -------------------------------------------------
 S        2
 P        4
 D        0
 F        0
          -------------------------------------------------

 Total:   6

 Net Charge: 0 (Nuclei minus Electrons)

 Preset values for MO occupations will be applied through SCF cycle no. 1000000
 Thereafter, the program will assign electrons to MOs that are spatially
 similar to the occupied MOs in a "reference" cycle ("KeepOrbitals").
 The reference cycle is always the PREVIOUS cycle: it will evolve with
 the SCF procedure.



 ================================
 (Slater-type)  F U N C T I O N S  ***  (Basis and Fit)  ***
 ================================
  

 Atom Type    1  (O)
 ==============

 Valence Basis Sets:   8
 -----------------------
   1 S    7.360000
   2 S    1.720000
   2 S    2.880000
   2 S    7.580000
   2 P    1.120000
   2 P    2.080000
   2 P    4.080000
   3 D    2.000000

 Frozen Core Shells
 ------------------
    S:  1


 BAS: List of all Elementary Cartesian Basis Functions
 =====================================================

 The numbering in the list below (to the right of the function characteristics) is referred
 to in print-outs of MO eigenvectors and Mulliken populations in the BAS representation
 (as contrasted to the SFO representation).

 Notes:
 1. The functions are characterized by a polynomial prefactor (powers of x,y,z and r) and
    an exponential decay factor alpha.
 2. Since the basis sets are specific for an atom TYPE, the individual functions occur on
    all atoms of that type.
 3. The word 'Core' in the left margin signals that it is a Core Function (CF) : not a
    degree of freedom in the valence set, but only used to ensure orthogonalization of
    the other valence basis functions on the frozen Core Orbitals.


 (power of) X  Y  Z  R     Alpha  on Atom
            ==========     =====     ==========

 O                                    1
                                  ---------------------------------------------------------------------------
    Core    0  0  0  0     7.360      1
            0  0  0  1     1.720      2
            0  0  0  1     2.880      3
            0  0  0  1     7.580      4
            1  0  0  0     1.120      5
            0  1  0  0     1.120      6
            0  0  1  0     1.120      7
            1  0  0  0     2.080      8
            0  1  0  0     2.080      9
            0  0  1  0     2.080     10
            1  0  0  0     4.080     11
            0  1  0  0     4.080     12
            0  0  1  0     4.080     13
            2  0  0  0     2.000     14
            1  1  0  0     2.000     15
            1  0  1  0     2.000     16
            0  2  0  0     2.000     17
            0  1  1  0     2.000     18
            0  0  2  0     2.000     19

 Total number of charge fitting functions (nprimf)        82
 Total number of Cartesian basis functions (naos)         19
 Total number of Cartesian core functions  (ncos)          1



 BAS: List of all Elementary Cartesian Basis Functions
 =====================================================

 The numbering in the list below (to the right of the function characteristics) is referred
 to in print-outs of MO eigenvectors and Mulliken populations in the BAS representation
 (as contrasted to the SFO representation).

 Notes:
 1. The functions are characterized by a polynomial prefactor (powers of x,y,z and r) and
    an exponential decay factor alpha.
 2. Since the basis sets are specific for an atom TYPE, the individual functions occur on
    all atoms of that type.
 3. The word 'Core' in the left margin signals that it is a Core Function (CF) : not a
    degree of freedom in the valence set, but only used to ensure orthogonalization of
    the other valence basis functions on the frozen Core Orbitals.


 (power of) X  Y  Z  R     Alpha  on Atom
            ==========     =====     ==========

 O                                    1
                                  ---------------------------------------------------------------------------
    Core    0  0  0  0     7.360      1
            0  0  0  1     1.720      2
            0  0  0  1     2.880      3
            0  0  0  1     7.580      4
            1  0  0  0     1.120      5
            0  1  0  0     1.120      6
            0  0  1  0     1.120      7
            1  0  0  0     2.080      8
            0  1  0  0     2.080      9
            0  0  1  0     2.080     10
            1  0  0  0     4.080     11
            0  1  0  0     4.080     12
            0  0  1  0     4.080     13
            2  0  0  0     2.000     14
            1  1  0  0     2.000     15
            1  0  1  0     2.000     16
            0  2  0  0     2.000     17
            0  1  1  0     2.000     18
            0  0  2  0     2.000     19
1
 ***************************************************************************************************



                                              ***********************
                                              *  T E C H N I C A L  *
                                              ***********************
  



 =============================================================
 P A R A L L E L I Z A T I O N  and  V E C T O R I Z A T I O N
 =============================================================
  
 Nr of parallel processes:                                1
 Maximum vector length in NumInt loops:                 128



 =====================
 S C F   U P D A T E S
 =====================
  
 Max. nr. of cycles:                               300
 Convergence criterion:                              0.0000000100
   secondary criterion:                              0.0000000100

 Mix parameter (when DIIS does not apply):           0.2000000000
 Special mix parameter for the first cycle:          1.0000000000
 Mixed ADIIS+SDIIS will be used                  
    Max number of expansion vectors:                10
    Pure ADIIS when Max([F,P]) is above              0.1000000000
    Pure SDIIS when Max([F,P]) is below              0.0010000000
 Automatic ElectronSmearing (in case of problematic SCF convergence) disabled



 =================
 P R E C I S I O N  ***  (General: NumInt, NeglectFunctionTails, ...)  ***
 =================
  

 NumInt:           Target precision:                12.0000000000
 -------           Initial precision:               10.0000000000
                   Min. precision (optimization):   10.0000000000

 Neglect Functions:          Basis functions:        0.1000000000E-13
 ------------------          Fit functions:          0.1000000000E-13



 ===========================
 L I N E A R   S C A L I N G
 ===========================
  

 Cut-off radii density fit:                        0.1000000000E-97
 Overlap cut-off criterion AO matrix elements:     0.1000000000E-97
 Cut-offs for Coulomb potential and fitted density:0.1000000000E-97
 Cut-off criterion for Coulomb multipole terms:    0.1000000000E-97
 Progressive Convergence parameter:                 0.000000000    
1
 ***************************************************************************************************



                                            ***************************
                                            *  C O M P U T A T I O N  *
                                            ***************************
  

 Number of elements of the density matrix on this node (used, total):       190       190



 ===========================================
 Numerical Integration : Fuzzy Cells (Becke)
 ===========================================
  
 Becke grid quality: VERYGOOD       
  
 Lebedev angular grid order:             min:  13 max:  41
 Nr. of radial points:                   min:  68 max:  68

 Total nr. of points:         68
 Nr. of blocks:                1
 Block length:                68
 Nr. of dummy points:          0


 Test of Precision of the Numerical Integration Grid
 ===================================================

 Integral of the Total Core Density:                   1.99999999865610
 Relative Error:                                      -6.720E-10



 ========================
 Density Fitting (zlmFit)
 ========================
  
 ZlmFit Fit Quality: VERYGOOD       
  
 Max L-expansion:                        min:   0 max:   0
 Nr. of radial interpolation points:     min: 140 max: 140



 =====
 S C F  ***  ScaSCF  ***
 =====
  

 CYCLE    1
 SCF Error: norm([F,P])=      0.000000000000, max([F,P])=      0.000000000000
 orbitals (Q,E):
 ---------------
 S :1...3            ( 2.00    -5.3654)  ( 0.00    -2.2073)  ( 0.00    23.6692)
 P :1...3            ( 4.00    -5.0045)  ( 0.00    -2.0150)  ( 0.00    -0.3846)
 D :1...1            ( 0.00    -2.0410)

 CYCLE    2
 SCF Error: norm([F,P])=      4.562993374873, max([F,P])=      2.528971113813
 orbitals (Q,E):
 ---------------
 S :1...2            ( 2.00    -0.1548)  ( 0.00     1.6948)
 P :1...2            ( 4.00     0.1773)  ( 0.00     0.9552)
 D :1...1            ( 0.00     1.4649)

 CYCLE    3
  SDIIS (wt  0.000):  0.3378  0.6622
 A-DIIS (wt  1.000):  0.4814  0.5186
  DIIS coefficients:  0.4814  0.5186
 SCF Error: norm([F,P])=      2.723155250500, max([F,P])=      1.798667049295
 orbitals (Q,E):
 ---------------
 S :1...2            ( 2.00    -1.1093)  ( 0.00     0.7549)
 P :1...2            ( 4.00    -0.5518)  ( 0.00     0.2590)
 D :1...1            ( 0.00     0.8910)

 CYCLE    4
  SDIIS (wt  0.000):  0.0919  0.9081
 A-DIIS (wt  1.000):  0.0000  1.0000
  DIIS coefficients:  0.0000  1.0000
 SCF Error: norm([F,P])=      0.289027138405, max([F,P])=      0.130648623511
 orbitals (Q,E):
 ---------------
 S :1...2            ( 2.00    -0.7707)  ( 0.00     0.9912)
 P :1...2            ( 4.00    -0.2284)  ( 0.00     0.4046)
 D :1...1            ( 0.00     1.1288)

 CYCLE    5
  SDIIS (wt  0.000):  0.0260  0.6740  0.3001
 A-DIIS (wt  1.000):  0.0000  0.5764  0.4236
  DIIS coefficients:  0.0000  0.5764  0.4236
 SCF Error: norm([F,P])=      0.416615089426, max([F,P])=      0.232643669786
 orbitals (Q,E):
 ---------------
 S :1...2            ( 2.00    -0.8764)  ( 0.00     0.9107)
 P :1...2            ( 4.00    -0.3280)  ( 0.00     0.3557)
 D :1...1            ( 0.00     1.0703)

 CYCLE    6
  SDIIS (wt  0.942):  0.0005  0.0237 -0.0203  0.9960
 A-DIIS (wt  0.058):  0.0000  0.0000  0.0000  1.0000
  DIIS coefficients:  0.0005  0.0224 -0.0191  0.9962
 SCF Error: norm([F,P])=      0.013723272809, max([F,P])=      0.006719036732
 orbitals (Q,E):
 ---------------
 S :1...2            ( 2.00    -0.8830)  ( 0.00     0.9058)
 P :1...2            ( 4.00    -0.3343)  ( 0.00     0.3521)
 D :1...1            ( 0.00     1.0657)

 CYCLE    7
  SDIIS (wt  1.000): -0.0000  0.0016  0.0023  0.0424  0.9537
  DIIS coefficients: -0.0000  0.0016  0.0023  0.0424  0.9537
 SCF Error: norm([F,P])=      0.001103645928, max([F,P])=      0.000634039171
 orbitals (Q,E):
 ---------------
 S :1...2            ( 2.00    -0.8827)  ( 0.00     0.9060)
 P :1...2            ( 4.00    -0.3340)  ( 0.00     0.3523)
 D :1...1            ( 0.00     1.0659)

 CYCLE    8
  SDIIS (wt  1.000): -0.0000 -0.0001  0.0000 -0.0032  0.0268  0.9765
  DIIS coefficients: -0.0000 -0.0001  0.0000 -0.0032  0.0268  0.9765
 SCF Error: norm([F,P])=      0.000035919805, max([F,P])=      0.000020263970
 orbitals (Q,E):
 ---------------
 S :1...2            ( 2.00    -0.8827)  ( 0.00     0.9060)
 P :1...2            ( 4.00    -0.3340)  ( 0.00     0.3522)
 D :1...1            ( 0.00     1.0659)

 CYCLE    9
  SDIIS (wt  1.000): -0.0000  0.0008  0.0188  0.9804
  DIIS coefficients: -0.0000  0.0008  0.0188  0.9804
 SCF Error: norm([F,P])=      0.000000326384, max([F,P])=      0.000000183924
 orbitals (Q,E):
 ---------------
 S :1...2            ( 2.00    -0.8827)  ( 0.00     0.9060)
 P :1...2            ( 4.00    -0.3340)  ( 0.00     0.3522)
 D :1...1            ( 0.00     1.0659)

 CYCLE   10
  SDIIS (wt  1.000):  0.0000  0.0003  0.9996
  DIIS coefficients:  0.0000  0.0003  0.9996
 SCF Error: norm([F,P])=      0.000000000559, max([F,P])=      0.000000000306
 orbitals (Q,E):
 ---------------
 S :1...2            ( 2.00    -0.8827)  ( 0.00     0.9060)
 P :1...2            ( 4.00    -0.3340)  ( 0.00     0.3522)
 D :1...1            ( 0.00     1.0659)

 SCF CONVERGED

 CYCLE   11
1
 ***************************************************************************************************



                                                *******************
                                                *  R E S U L T S  *
                                                *******************
  
 *** Using FIT density in Focky
  SDIIS (wt  1.000): -0.0000  0.0143  0.9857
  DIIS coefficients: -0.0000  0.0143  0.9857
 SCF Error: norm([F,P])=      0.000000000010, max([F,P])=      0.000000000006

 Scaled ZORA Orbital Energies, per Irrep and Spin:
 =================================================
                        Occup              E (au)              E (eV)       Diff (eV) with prev. cycle
                        -----      --------------------        ------       --------------------------
 S
               1        2.000     -0.88272313143209E+00       -24.020              -9.28E-11
               2        0.000      0.90601345014671E+00        24.654
               3        0.000      0.29578810816937E+02       804.880
 P
               1        4.000     -0.33400585272070E+00        -9.089              -8.94E-11
               2        0.000      0.35224911365993E+00         9.585
               3        0.000      0.38342927625315E+01       104.336
 D
               1        0.000      0.10658965783141E+01        29.005


 Partially Occupied:
               1 P                -0.33400585272070E+00
  
 HOMO :        1 S                -0.88272313143209E+00
 LUMO :        2 P                 0.35224911365993E+00
  


 Orbital Energies, all Irreps
 ========================================

 Irrep        no.  (spin)   Occup              E (au)                E (eV)
 ---------------------------------------------------------------------------
 S             1             2.00       -0.88272313143209E+00       -24.0201
 P             1             4.00       -0.33400585272070E+00        -9.0888
 P             2             0.00        0.35224911365993E+00         9.5852
 S             2             0.00        0.90601345014671E+00        24.6539
 D             1             0.00        0.10658965783141E+01        29.0045
 P             3             0.00        0.38342927625315E+01       104.3364
 S             3             0.00        0.29578810816937E+02       804.8804


 Scaled ZORA Orbital Energies of the Core Orbitals:
 ==================================================

 (Note that the atoms are grouped by atomtype, see the labels, and may hence NOT be in input order)

 AtomType  Orbital  Atom                   E (au)                        E (eV)
 --------  -------  ----           --------------------        ----------------
 O           1S        1          -0.18925919758629E+02                -515.000



 =======================================
 M U L L I K E N   P O P U L A T I O N S
 =======================================
  
 The survey below gives for each atom:
 a) the total charge (Z minus electrons)
 b) the net spin polarization (nr of electrons spin-A minus spin-B)
 c) for each spin the atomic electron valence density (integrated) per L-value.

 Atom              Charge    Spin density          S         P         D         F
 ----              ------    ------------       ------    ------    ------    ------
 1 O              -0.0000                       2.0000    4.0000    0.0000    0.0000

 Populations of individual BAS functions
 ----------------------------------------
 1 O            0.0005  0.9226  1.0966 -0.0196  0.3346  0.3346  0.3346  0.7512  0.7512  0.7512
                0.2476  0.2476  0.2476  0.0000  0.0000  0.0000  0.0000  0.0000  0.0000

 Gross Charges per Atom (Z minus electrons)
 ==========================================
            -0.0000
 Net Total: -0.00000000



 =======================================================================
 Electrostatic potential at the Nuclei due to electrons and other nuclei
 =======================================================================
  
         Atom                  Potential
         ----                  ---------
     1)   O                  22.20265662
 
 
 ========================
 No memory problems found
 ========================
 
 Maximum number of active allocate calls:         389
 
 *******************************************************************************

                             A D F   E X I T
 NORMAL TERMINATION



 =================
 Timing Statistics
 =================
  
 Total Used :                     CPU=        0.43      System=        0.02     Elapsed=        0.48

 Calls  Section                     ( Mean, Percentage )
 ---------------------------------------------------------------------------------------------------
     3  ><      ................      0.00    0.93             0.00    0.00             0.00    0.91
     1  INIT    ................      0.07   15.74             0.00   25.00             0.08   16.08
     1  GEOMET  ................      0.02    3.70             0.00    0.00             0.02    4.84
     1  INPUTA  ................      0.00    0.93             0.00    0.00             0.00    0.71
     1  MAINSY  ................      0.01    2.78             0.00    0.00             0.01    2.81
     1  SYMFIT  ................      0.00    0.00             0.00    0.00             0.00    0.34
     1  CORORT  ................      0.00    0.00             0.00    0.00             0.00    0.33
     1  SYMORB  ................      0.00    0.00             0.00    0.00             0.00    0.18
     1  CLSMAT  ................      0.01    1.85             0.00    0.00             0.01    1.21
     1  ORTHON  ................      0.00    0.93             0.00    0.00             0.01    1.09
     1  GENPT   ................      0.01    2.78             0.00   25.00             0.01    3.09
     1  PTBAS   ................      0.00    0.93             0.00    0.00             0.01    1.15
    11  FOCKY   ................      0.02   52.78             0.00   50.00             0.02   51.51
    11  FOCKTR  ................      0.00    2.78             0.00    0.00             0.00    1.55
    11  SDIIS   ................      0.00    5.56             0.00    0.00             0.00    6.30
     1  COREPS  ................      0.02    3.70             0.00    0.00             0.02    3.64
     1  POPAN   ................      0.01    1.85             0.00    0.00             0.01    1.12
     1  DEBYE   ................      0.00    0.00             0.00    0.00             0.00    0.39
     1  EXIT PROCEDURE .........      0.01    2.78             0.00    0.00             0.01    2.74


 Currently Open Files (EXIT00)
 ====================

 Unit    Access Format  Status   Type       Ident (file)
 -------------------------------------------------------
   3      SEQ    FORM   TRANSP  NORMAL      LOGFILE
                                          ( logfile )

 ***************************************************************************************************
 (LOGFILE)
 <Oct18-2020> <22:34:29>  DIRAC 2019  RunTime: Oct18-2020 22:34:29  Nodes: 1  Procs: 1
 <Oct18-2020> <22:34:29>  NORMAL TERMINATION
 <Oct18-2020> <22:34:29>  END
 <Oct18-2020> <22:34:29>  ADF 2019  RunTime: Oct18-2020 22:34:29  Nodes: 1  Procs: 1
 <Oct18-2020> <22:34:29>  Hydrogen (TZP)
 <Oct18-2020> <22:34:29>  RunType   : CREATE
 <Oct18-2020> <22:34:29>  Net Charge: 0 (Nuclei minus Electrons)
 <Oct18-2020> <22:34:29>  Symmetry  : ATOM
  Coordinates
    Atom         X           Y           Z   (Angstrom)
    1.H         0.000000    0.000000    0.000000
 <Oct18-2020> <22:34:29>  >>>> CORORT
 <Oct18-2020> <22:34:29>  >>>> CLSMAT
 <Oct18-2020> <22:34:29>  >>>> ORTHON
 <Oct18-2020> <22:34:29>  >>>> GENPT
 <Oct18-2020> <22:34:29>  Block Length=  64
 <Oct18-2020> <22:34:29>  >>>> PTBAS
 <Oct18-2020> <22:34:29>  >>>> CYCLE
 <Oct18-2020> <22:34:30>              |Error|         MaxErr       Wt(A-DIIS)
 <Oct18-2020> <22:34:30>      1      0.00000000      0.00000000
 <Oct18-2020> <22:34:30>      2      0.03153787      0.03011049
 <Oct18-2020> <22:34:30>      3      0.00861799      0.00834303    100.0
 <Oct18-2020> <22:34:30>      4      0.00173235      0.00171862      0.7
 <Oct18-2020> <22:34:30>      5      0.00004367      0.00003977      0.0
 <Oct18-2020> <22:34:30>      6      0.00000238      0.00000216      0.0
 <Oct18-2020> <22:34:30>      7      0.00000001      0.00000001      0.0
 <Oct18-2020> <22:34:30>  SCF converged
 <Oct18-2020> <22:34:30>      8      0.00000000      0.00000000      0.0
 <Oct18-2020> <22:34:30>  >>>> POPAN
 <Oct18-2020> <22:34:30>  >>>> DEBYE
 <Oct18-2020> <22:34:30>  NORMAL TERMINATION
 <Oct18-2020> <22:34:30>  END
 <Oct18-2020> <22:34:30>  DIRAC 2019  RunTime: Oct18-2020 22:34:30  Nodes: 1  Procs: 1
 <Oct18-2020> <22:34:30>  NORMAL TERMINATION
 <Oct18-2020> <22:34:30>  END
 <Oct18-2020> <22:34:30>  ADF 2019  RunTime: Oct18-2020 22:34:30  Nodes: 1  Procs: 1
 <Oct18-2020> <22:34:30>  Oxygen (TZP, 1s frozen)
 <Oct18-2020> <22:34:30>  RunType   : CREATE
 <Oct18-2020> <22:34:30>  Net Charge: 0 (Nuclei minus Electrons)
 <Oct18-2020> <22:34:30>  Symmetry  : ATOM
  Coordinates
    Atom         X           Y           Z   (Angstrom)
    1.O         0.000000    0.000000    0.000000
 <Oct18-2020> <22:34:30>  >>>> CORORT
 <Oct18-2020> <22:34:30>  >>>> CLSMAT
 <Oct18-2020> <22:34:30>  >>>> ORTHON
 <Oct18-2020> <22:34:30>  >>>> GENPT
 <Oct18-2020> <22:34:30>  Block Length=  68
 <Oct18-2020> <22:34:30>  >>>> PTBAS
 <Oct18-2020> <22:34:30>  >>>> CYCLE
 <Oct18-2020> <22:34:30>              |Error|         MaxErr       Wt(A-DIIS)
 <Oct18-2020> <22:34:30>      1      0.00000000      0.00000000
 <Oct18-2020> <22:34:30>      2      4.56299337      2.52897111
 <Oct18-2020> <22:34:30>      3      2.72315525      1.79866705    100.0
 <Oct18-2020> <22:34:30>      4      0.28902714      0.13064862    100.0
 <Oct18-2020> <22:34:30>      5      0.41661509      0.23264367    100.0
 <Oct18-2020> <22:34:30>      6      0.01372327      0.00671904      5.8
 <Oct18-2020> <22:34:30>      7      0.00110365      0.00063404      0.0
 <Oct18-2020> <22:34:30>      8      0.00003592      0.00002026      0.0
 <Oct18-2020> <22:34:30>      9      0.00000033      0.00000018      0.0
 <Oct18-2020> <22:34:30>     10      0.00000000      0.00000000      0.0
 <Oct18-2020> <22:34:30>  SCF converged
 <Oct18-2020> <22:34:30>     11      0.00000000      0.00000000      0.0
 <Oct18-2020> <22:34:30>  >>>> POPAN
 <Oct18-2020> <22:34:30>  >>>> DEBYE
 <Oct18-2020> <22:34:30>  NORMAL TERMINATION
 <Oct18-2020> <22:34:30>  END

 *******************************************************************************
 *                                                                             *
 *  -------------------------------------                                      *
 *   Amsterdam Density Functional  (ADF)         2019                          *
 *  -------------------------------------                                      *
 *                                               r79301 2019-11-09             *
 *                                                                             *
 *                                                                             *
 *                            =====================                            *
 *                            |                   |                            *
 *                            |     D I R A C     |                            *
 *                            |                   |                            *
 *                            =====================                            *
 *                                                                             *
 *                                                                             *
 *   Online information and documentation:  https://www.scm.com/support/       *
 *   E-mail:  support@scm.com   info@scm.com                                   *
 *                                                                             *
 *   Scientific publications using ADF results must be properly referenced     *
 *   See the User Manuals (or the web site) for recommended citations          *
 *   The terms and conditions of the End User License Agreement apply to       *
 *   the use of ADF, https://www.scm.com/license-terms/                        *
 *                                                                             *
 **********************  x86_64_linux_intel / intelmpi  ************************
 
 
 
  
 DIRAC 2019  RunTime: Oct18-2020 22:34:30  Nodes: 1  Procs: 1

 Temporary files are created in /scratch/kid_0.853242734 (0x58465342)

1
 TUNGSTEN ATOM 4d CORE RELATIVISTIC, Point Nuc, A and c from 
 N J RN H ZN XION ANUC CLIGHT
 5000   22100.00000000197.36710137 74.00000000  0.00000000  183.950932  0.1370360E+03
  PH   PHI     EPS        DEL        DELRVR
  0.30  0.30     2500.00  0.00001000  0.00001000
 IDIRC  NC1  NDEBU NPRIN  IPUN IRCOR IWCOR
   1   300     0     0     0     0    14
   XALPHA      XLATTER      RNUC
  0.70000000  0.00000000  0.00000000 Point Charge
   XN   XL   XJ      XE          XZ      XDELL
  1.0  0.0  0.5   -2600.000       2.000     0.00000
  2.0  0.0  0.5    -425.000       2.000     0.00000
  2.0  1.0  0.5    -425.000       2.000     0.00000
  2.0  1.0  1.5    -425.000       4.000     0.00000
  3.0  0.0  0.5    -100.000       2.000     0.00000
  3.0  1.0  0.5    -100.000       2.000     0.00000
  3.0  1.0  1.5    -100.000       4.000     0.00000
  3.0  2.0  1.5     -80.000       4.000     0.00000
  3.0  2.0  2.5     -80.000       6.000     0.00000
  4.0  0.0  0.5     -22.000       2.000     0.00000
  4.0  1.0  0.5     -20.000       2.000     0.00000
  4.0  1.0  1.5     -20.000       4.000     0.00000
  4.0  2.0  1.5     -11.000       4.000     0.00000
  4.0  2.0  2.5     -11.000       6.000     0.00000
  4.0  3.0  2.5      -1.000       6.000     0.00000
  4.0  3.0  3.5      -1.000       8.000     0.00000
  5.0  0.0  0.5      -3.000       2.000     0.00000
  5.0  1.0  0.5      -2.200       2.000     0.00000
  5.0  1.0  1.5      -2.200       4.000     0.00000
  5.0  2.0  1.5      -0.500       4.000     0.00000
  5.0  2.0  2.5      -0.500       0.000     0.00000
  6.0  0.0  0.5      -0.200       2.000     0.00000
 ICORP=  0  NPCL=  0  DEMP=0.00  PEPS=0.000000
 R(1)=  0.1000000E-08 D=  0.1005080E+01 RNUC=  0.0000000E+00
 converged at cycle   63  DENSITY AVERAGING    0.1536
  MAXIMUM ERROR IN R.V(R) IS   0.78838062E-05
 Q,EY,EV,EZ,ESUM,ETOT,RHO  0.740000E+02 -0.431420E+03 -0.281568E+05 -0.403919E+05 -0.993885E+04 -0.161643E+05  0.726391E-09


 DIRAC CALCULATION
1                    TUNGSTEN ATOM 4d CORE RELATIVISTIC, Point Nuc, A and c from libtc


 EXCHANGE COEFFICIENT=  0.7000000           TAIL CORRECTION=  0.           NUCLEAR RADIUS=  0.000E+00
0                       ORBITAL    N    L    J     ELECTRONS     EIGENVALUE                DELTA OF EIGENV.

                          1S1/2  1.0  0.0  0.5     2.000       -0.2549514E+04                 0.5980248E-04
                          2S1/2  2.0  0.0  0.5     2.000       -0.4399118E+03                 0.5052420E-04
                          2P1/2  2.0  1.0  0.5     2.000       -0.4208427E+03                 0.5265062E-04
                          2P3/2  2.0  1.0  1.5     4.000       -0.3711192E+03                 0.5139441E-04
                          3S1/2  3.0  0.0  0.5     2.000       -0.1012881E+03                 0.3437035E-04
                          3P1/2  3.0  1.0  0.5     2.000       -0.9277148E+02                 0.3553128E-04
                          3P3/2  3.0  1.0  1.5     4.000       -0.8201733E+02                 0.3404634E-04
                          3D3/2  3.0  2.0  1.5     4.000       -0.6762803E+02                 0.3680712E-04
                          3D5/2  3.0  2.0  2.5     6.000       -0.6528623E+02                 0.3629511E-04
                          4S1/2  4.0  0.0  0.5     2.000       -0.2084139E+02                 0.1939427E-04
                          4P1/2  4.0  1.0  0.5     2.000       -0.1730737E+02                 0.1933978E-04
                          4P3/2  4.0  1.0  1.5     4.000       -0.1480597E+02                 0.1810922E-04
                          4D3/2  4.0  2.0  1.5     4.000       -0.8989319E+01                 0.1779394E-04
                          4D5/2  4.0  2.0  2.5     6.000       -0.8528007E+01                 0.1741170E-04
                          4F5/2  4.0  3.0  2.5     6.000       -0.1237480E+01                 0.1544089E-04
                          4F7/2  4.0  3.0  3.5     8.000       -0.1154634E+01                 0.1522033E-04
                          5S1/2  5.0  0.0  0.5     2.000       -0.2863514E+01                 0.7979521E-05
                          5P1/2  5.0  1.0  0.5     2.000       -0.1813289E+01                 0.7246225E-05
                          5P3/2  5.0  1.0  1.5     4.000       -0.1448762E+01                 0.6602120E-05
                          5D3/2  5.0  2.0  1.5     4.000       -0.1486933E+00                 0.3973088E-05
                          5D5/2  5.0  2.0  2.5     0.000       -0.1223153E+00                 0.3735081E-05
                          6S1/2  6.0  0.0  0.5     2.000       -0.1847434E+00                 0.1808440E-05


                                        NUCLEAR CHARGE=   74.000000
                            INTEGRAL OF CHARGE DENSITY=   74.000000
                           SUM OF THE ORBITAL ENERGIES=  -9938.8529
                                          TOTAL ENERGY= -16164.2530
                                        KINETIC ENERGY=  18217.9700
                             NUCLEAR ATTRACTION ENERGY= -40391.9132
                             ELECTRON REPULSION ENERGY=   6333.2551
                                       EXCHANGE ENERGY=   -323.5649

 *******************************************************************************

                             D I R A C   E X I T
 NORMAL TERMINATION



 =================
 Timing Statistics
 =================
  
 Total Used :                     CPU=        0.68      System=        0.00     Elapsed=        0.69

 Calls  Section                     ( Mean, Percentage )
 ---------------------------------------------------------------------------------------------------
     2  ><      ................      0.00    0.00             0.00    0.00             0.00    0.00
     1  EXIT PROCEDURE .........      0.68  100.00             0.00  100.00             0.69  100.00


 Currently Open Files (EXIT00)
 ====================

 Unit    Access Format  Status   Type       Ident (file)
 -------------------------------------------------------
   3      SEQ    FORM   TRANSP  NORMAL      LOGFILE
                                          ( logfile )
 
Create W   file=TZP-W.4d
XC
  GGA PBE
End
relativistic ZORA
Corepotentials t12.rel
End

 *******************************************************************************
 *                                                                             *
 *  -------------------------------------                                      *
 *   Amsterdam Density Functional  (ADF)         2019                          *
 *  -------------------------------------                                      *
 *                                               r79301 2019-11-09             *
 *                                                                             *
 *                                                                             *
 *                              =================                              *
 *                              |               |                              *
 *                              |     A D F     |                              *
 *                              |               |                              *
 *                              =================                              *
 *                                                                             *
 *                                                                             *
 *   Online information and documentation:  https://www.scm.com/support/       *
 *   E-mail:  support@scm.com   info@scm.com                                   *
 *                                                                             *
 *   Scientific publications using ADF results must be properly referenced     *
 *   See the User Manuals (or the web site) for recommended citations          *
 *   The terms and conditions of the End User License Agreement apply to       *
 *   the use of ADF, https://www.scm.com/license-terms/                        *
 *                                                                             *
 **********************  x86_64_linux_intel / intelmpi  ************************
 
 
 
  
 ADF 2019  RunTime: Oct18-2020 22:34:31  Nodes: 1  Procs: 1

 Temporary files are created in /scratch/kid_0.1467862661 (0x58465342)

 Tungsten (TZP, 4d frozen)



 ===========================
 A T T A C H E D   F I L E S
 ===========================
  
 CREATE - Data File:    TZP-W.4d
                        Tungsten (TZP, 4d frozen)
 Core Potentials:
         file : t12.rel



 ===============================
 M O D E L   P A R A M E T E R S
 ===============================
  
 DENSITY FUNCTIONAL POTENTIAL (scf)
    LDA:                               PW92                                    == Not Default ==
    Gradient Corrections:              PBEc PBEx                               == Not Default ==

 SPIN  (restricted / unrestr.)
    Molecule:                          Restricted                               

 OTHER ASPECTS
    Relativistic Corrections:          scalar (ZORA,MAPA)                      == Not Default ==

    Nuclear Charge Density Model:      Point Charge Nuclei                      
    Core Treatment:                    Frozen Orbital(s)                        

    Hyperfine or Zeeman Interaction:   ---                                      



 =====================================
 S Y M M E T R Y ,   E L E C T R O N S
 =====================================
  
 Symmetry: ATOM

 Irreducible Representations, including subspecies
 -------------------------------------------------
 S
 P:x  P:y  P:z
 D:z2  D:x2-y2  D:xy  D:xz  D:yz
 F:z3  F:z  F:xyz  F:z2x  F:z2y  F:x  F:y


 Configuration of Valence Electrons
 ==================================

          Occupation Numbers
          -------------------------------------------------
 S        2*2
 P        6
 D        4
 F        14
          -------------------------------------------------

 Total:   28

 Net Charge: 0 (Nuclei minus Electrons)

 Preset values for MO occupations will be applied through SCF cycle no. 1000000
 Thereafter, the program will assign electrons to MOs that are spatially
 similar to the occupied MOs in a "reference" cycle ("KeepOrbitals").
 The reference cycle is always the PREVIOUS cycle: it will evolve with
 the SCF procedure.



 ================================
 (Slater-type)  F U N C T I O N S  ***  (Basis and Fit)  ***
 ================================
  

 Atom Type    1  (W)
 ==============

 Valence Basis Sets:  25
 -----------------------
   1 S   52.000000
   2 S   33.250000
   3 S   19.100000
   4 S   11.650000
   2 P   36.850000
   3 P   16.500000
   4 P   11.550000
   3 D   20.100000
   4 D   10.300000
   1 S  163.900000
   5 S    6.050000
   5 S    3.950000
   6 S    2.850000
   6 S    1.800000
   6 S    1.140000
   5 P    5.900000
   5 P    4.000000
   5 P    2.700000
   5 D    4.150000
   5 D    2.250000
   5 D    1.200000
   4 F   13.550000
   4 F    7.050000
   4 F    3.550000
   6 P    1.800000

 Frozen Core Shells
 ------------------
    S:  4
    P:  3
    D:  2


 BAS: List of all Elementary Cartesian Basis Functions
 =====================================================

 The numbering in the list below (to the right of the function characteristics) is referred
 to in print-outs of MO eigenvectors and Mulliken populations in the BAS representation
 (as contrasted to the SFO representation).

 Notes:
 1. The functions are characterized by a polynomial prefactor (powers of x,y,z and r) and
    an exponential decay factor alpha.
 2. Since the basis sets are specific for an atom TYPE, the individual functions occur on
    all atoms of that type.
 3. The word 'Core' in the left margin signals that it is a Core Function (CF) : not a
    degree of freedom in the valence set, but only used to ensure orthogonalization of
    the other valence basis functions on the frozen Core Orbitals.


 (power of) X  Y  Z  R     Alpha  on Atom
            ==========     =====     ==========

 W                                    1
                                  ---------------------------------------------------------------------------
    Core    0  0  0  0    52.000      1
    Core    0  0  0  1    33.250      2
    Core    0  0  0  2    19.100      3
    Core    0  0  0  3    11.650      4
    Core    1  0  0  0    36.850      5
    Core    0  1  0  0    36.850      6
    Core    0  0  1  0    36.850      7
    Core    1  0  0  1    16.500      8
    Core    0  1  0  1    16.500      9
    Core    0  0  1  1    16.500     10
    Core    1  0  0  2    11.550     11
    Core    0  1  0  2    11.550     12
    Core    0  0  1  2    11.550     13
    Core    2  0  0  0    20.100     14
    Core    1  1  0  0    20.100     15
    Core    1  0  1  0    20.100     16
    Core    0  2  0  0    20.100     17
    Core    0  1  1  0    20.100     18
    Core    0  0  2  0    20.100     19
    Core    2  0  0  1    10.300     20
    Core    1  1  0  1    10.300     21
    Core    1  0  1  1    10.300     22
    Core    0  2  0  1    10.300     23
    Core    0  1  1  1    10.300     24
    Core    0  0  2  1    10.300     25
            0  0  0  0   163.900     26
            0  0  0  4     6.050     27
            0  0  0  4     3.950     28
            0  0  0  5     2.850     29
            0  0  0  5     1.800     30
            0  0  0  5     1.140     31
            1  0  0  3     5.900     32
            0  1  0  3     5.900     33
            0  0  1  3     5.900     34
            1  0  0  3     4.000     35
            0  1  0  3     4.000     36
            0  0  1  3     4.000     37
            1  0  0  3     2.700     38
            0  1  0  3     2.700     39
            0  0  1  3     2.700     40
            2  0  0  2     4.150     41
            1  1  0  2     4.150     42
            1  0  1  2     4.150     43
            0  2  0  2     4.150     44
            0  1  1  2     4.150     45
            0  0  2  2     4.150     46
            2  0  0  2     2.250     47
            1  1  0  2     2.250     48
            1  0  1  2     2.250     49
            0  2  0  2     2.250     50
            0  1  1  2     2.250     51
            0  0  2  2     2.250     52
            2  0  0  2     1.200     53
            1  1  0  2     1.200     54
            1  0  1  2     1.200     55
            0  2  0  2     1.200     56
            0  1  1  2     1.200     57
            0  0  2  2     1.200     58
            3  0  0  0    13.550     59
            2  1  0  0    13.550     60
            2  0  1  0    13.550     61
            1  2  0  0    13.550     62
            1  1  1  0    13.550     63
            1  0  2  0    13.550     64
            0  3  0  0    13.550     65
            0  2  1  0    13.550     66
            0  1  2  0    13.550     67
            0  0  3  0    13.550     68
            3  0  0  0     7.050     69
            2  1  0  0     7.050     70
            2  0  1  0     7.050     71
            1  2  0  0     7.050     72
            1  1  1  0     7.050     73
            1  0  2  0     7.050     74
            0  3  0  0     7.050     75
            0  2  1  0     7.050     76
            0  1  2  0     7.050     77
            0  0  3  0     7.050     78
            3  0  0  0     3.550     79
            2  1  0  0     3.550     80
            2  0  1  0     3.550     81
            1  2  0  0     3.550     82
            1  1  1  0     3.550     83
            1  0  2  0     3.550     84
            0  3  0  0     3.550     85
            0  2  1  0     3.550     86
            0  1  2  0     3.550     87
            0  0  3  0     3.550     88
            1  0  0  4     1.800     89
            0  1  0  4     1.800     90
            0  0  1  4     1.800     91

 Total number of charge fitting functions (nprimf)       329
 Total number of Cartesian basis functions (naos)         91
 Total number of Cartesian core functions  (ncos)         25



 BAS: List of all Elementary Cartesian Basis Functions
 =====================================================

 The numbering in the list below (to the right of the function characteristics) is referred
 to in print-outs of MO eigenvectors and Mulliken populations in the BAS representation
 (as contrasted to the SFO representation).

 Notes:
 1. The functions are characterized by a polynomial prefactor (powers of x,y,z and r) and
    an exponential decay factor alpha.
 2. Since the basis sets are specific for an atom TYPE, the individual functions occur on
    all atoms of that type.
 3. The word 'Core' in the left margin signals that it is a Core Function (CF) : not a
    degree of freedom in the valence set, but only used to ensure orthogonalization of
    the other valence basis functions on the frozen Core Orbitals.


 (power of) X  Y  Z  R     Alpha  on Atom
            ==========     =====     ==========

 W                                    1
                                  ---------------------------------------------------------------------------
    Core    0  0  0  0    52.000      1
    Core    0  0  0  1    33.250      2
    Core    0  0  0  2    19.100      3
    Core    0  0  0  3    11.650      4
    Core    1  0  0  0    36.850      5
    Core    0  1  0  0    36.850      6
    Core    0  0  1  0    36.850      7
    Core    1  0  0  1    16.500      8
    Core    0  1  0  1    16.500      9
    Core    0  0  1  1    16.500     10
    Core    1  0  0  2    11.550     11
    Core    0  1  0  2    11.550     12
    Core    0  0  1  2    11.550     13
    Core    2  0  0  0    20.100     14
    Core    1  1  0  0    20.100     15
    Core    1  0  1  0    20.100     16
    Core    0  2  0  0    20.100     17
    Core    0  1  1  0    20.100     18
    Core    0  0  2  0    20.100     19
    Core    2  0  0  1    10.300     20
    Core    1  1  0  1    10.300     21
    Core    1  0  1  1    10.300     22
    Core    0  2  0  1    10.300     23
    Core    0  1  1  1    10.300     24
    Core    0  0  2  1    10.300     25
            0  0  0  0   163.900     26
            0  0  0  4     6.050     27
            0  0  0  4     3.950     28
            0  0  0  5     2.850     29
            0  0  0  5     1.800     30
            0  0  0  5     1.140     31
            1  0  0  3     5.900     32
            0  1  0  3     5.900     33
            0  0  1  3     5.900     34
            1  0  0  3     4.000     35
            0  1  0  3     4.000     36
            0  0  1  3     4.000     37
            1  0  0  3     2.700     38
            0  1  0  3     2.700     39
            0  0  1  3     2.700     40
            2  0  0  2     4.150     41
            1  1  0  2     4.150     42
            1  0  1  2     4.150     43
            0  2  0  2     4.150     44
            0  1  1  2     4.150     45
            0  0  2  2     4.150     46
            2  0  0  2     2.250     47
            1  1  0  2     2.250     48
            1  0  1  2     2.250     49
            0  2  0  2     2.250     50
            0  1  1  2     2.250     51
            0  0  2  2     2.250     52
            2  0  0  2     1.200     53
            1  1  0  2     1.200     54
            1  0  1  2     1.200     55
            0  2  0  2     1.200     56
            0  1  1  2     1.200     57
            0  0  2  2     1.200     58
            3  0  0  0    13.550     59
            2  1  0  0    13.550     60
            2  0  1  0    13.550     61
            1  2  0  0    13.550     62
            1  1  1  0    13.550     63
            1  0  2  0    13.550     64
            0  3  0  0    13.550     65
            0  2  1  0    13.550     66
            0  1  2  0    13.550     67
            0  0  3  0    13.550     68
            3  0  0  0     7.050     69
            2  1  0  0     7.050     70
            2  0  1  0     7.050     71
            1  2  0  0     7.050     72
            1  1  1  0     7.050     73
            1  0  2  0     7.050     74
            0  3  0  0     7.050     75
            0  2  1  0     7.050     76
            0  1  2  0     7.050     77
            0  0  3  0     7.050     78
            3  0  0  0     3.550     79
            2  1  0  0     3.550     80
            2  0  1  0     3.550     81
            1  2  0  0     3.550     82
            1  1  1  0     3.550     83
[...]
 <Oct18-2020> <22:43:57>      8      0.02273122      0.00532207      4.4
 <Oct18-2020> <22:43:58>      9      0.00641288      0.00127850      0.3
 <Oct18-2020> <22:43:58>     10      0.00183694      0.00028572      0.0
 <Oct18-2020> <22:43:59>     11      0.00062003      0.00016316      0.0
 <Oct18-2020> <22:43:59>     12      0.00023850      0.00006096      0.0
 <Oct18-2020> <22:44:00>     13      0.00002198      0.00000411      0.0
 <Oct18-2020> <22:44:01>     14      0.00001699      0.00000392      0.0
 <Oct18-2020> <22:44:01>     15      0.00000218      0.00000037      0.0
 <Oct18-2020> <22:44:01>  SCF converged
 <Oct18-2020> <22:44:01>     16      0.00000056      0.00000008      0.0
 <Oct18-2020> <22:44:02>  >>>> TOTEN
 <Oct18-2020> <22:44:02>  >>>> POPAN
 <Oct18-2020> <22:44:02>  >>>> DEBYE
 <Oct18-2020> <22:44:02>  >>>> ENGRAD
 <Oct18-2020> <22:44:03>  current energy                               -2.80000653 Hartree
 <Oct18-2020> <22:44:03>  energy change                      -0.00000808     0.00100000    T
 <Oct18-2020> <22:44:03>  constrained gradient max            0.00125157     0.00100000    F
 <Oct18-2020> <22:44:03>  constrained gradient rms            0.00036483     0.00066667    T
 <Oct18-2020> <22:44:03>  gradient max                        0.00125157
 <Oct18-2020> <22:44:03>  gradient rms                        0.00036483
 <Oct18-2020> <22:44:03>  cart. step max                      0.00378080     0.01000000    T
 <Oct18-2020> <22:44:03>  cart. step rms                      0.00108084     0.00666667    T
  Coordinates in Geometry Cycle 49
    Atom         X           Y           Z   (Angstrom)
    1.W        -0.955273   -0.065226   -0.609624
    2.O        -2.508777   -0.809032   -0.449282
    3.O        -0.936251    0.769074    1.404867
    4.O        -0.763571   -0.051227   -2.493005
    5.O         0.669198    1.566453   -0.774543
    6.O         0.178420   -1.247377   -0.056879
    7.O        -2.127041    1.917156   -0.672386
    8.H        -3.067477    1.798615   -0.923237
    9.H        -1.800192    2.658913   -1.222637
   10.H         0.121378   -0.226996   -2.875550
   11.H         0.917710    2.175880   -0.049863
   12.H         0.777848    2.077285   -1.602506
   13.H        -0.152764    0.648991    1.981200
   14.H        -1.279564    1.677844    1.541218
 <Oct18-2020> <22:44:03>  >>>> CORORT
 <Oct18-2020> <22:44:03>  >>>> CLSMAT
 <Oct18-2020> <22:44:03>  >>>> ORTHON
 <Oct18-2020> <22:44:03>  >>>> GENPT
 <Oct18-2020> <22:44:04>  Block Length= 128
 <Oct18-2020> <22:44:04>  >>>> PTBAS
 <Oct18-2020> <22:44:04>  combining surface points...
 <Oct18-2020> <22:44:04>  combining surface points...
 <Oct18-2020> <22:44:04>  combining surface points...
 <Oct18-2020> <22:44:04>  >>>> CYCLE
 <Oct18-2020> <22:44:05>              |Error|         MaxErr       Wt(A-DIIS)
 <Oct18-2020> <22:44:05>      1      0.16565587      0.02356721
 <Oct18-2020> <22:44:06>      2      0.57731306      0.13806958    100.0
 <Oct18-2020> <22:44:06>      3      0.16861747      0.02262482    100.0
 <Oct18-2020> <22:44:07>      4      0.28568246      0.06701729    100.0
 <Oct18-2020> <22:44:07>      5      0.37184666      0.07451625    100.0
 <Oct18-2020> <22:44:08>      6      0.06283168      0.01313746     12.3
 <Oct18-2020> <22:44:09>      7      0.05764285      0.01443093     12.3
 <Oct18-2020> <22:44:09>      8      0.02056939      0.00449300      3.5
 <Oct18-2020> <22:44:10>      9      0.00578829      0.00114562      0.1
 <Oct18-2020> <22:44:10>     10      0.00181382      0.00028915      0.0
 <Oct18-2020> <22:44:11>     11      0.00051542      0.00013271      0.0
 <Oct18-2020> <22:44:11>     12      0.00025946      0.00007002      0.0
 <Oct18-2020> <22:44:12>     13      0.00002074      0.00000388      0.0
 <Oct18-2020> <22:44:12>     14      0.00001207      0.00000288      0.0
 <Oct18-2020> <22:44:13>     15      0.00000220      0.00000046      0.0
 <Oct18-2020> <22:44:13>  SCF converged
 <Oct18-2020> <22:44:13>     16      0.00000050      0.00000008      0.0
 <Oct18-2020> <22:44:14>  >>>> TOTEN
 <Oct18-2020> <22:44:14>  >>>> POPAN
 <Oct18-2020> <22:44:14>  >>>> DEBYE
 <Oct18-2020> <22:44:14>  >>>> ENGRAD
 <Oct18-2020> <22:44:15>  current energy                               -2.80000769 Hartree
 <Oct18-2020> <22:44:15>  energy change                      -0.00000116     0.00100000    T
 <Oct18-2020> <22:44:15>  constrained gradient max            0.00093057     0.00100000    T
 <Oct18-2020> <22:44:15>  constrained gradient rms            0.00027319     0.00066667    T
 <Oct18-2020> <22:44:15>  gradient max                        0.00093057
 <Oct18-2020> <22:44:15>  gradient rms                        0.00027319
 <Oct18-2020> <22:44:15>  cart. step max                      0.00877669     0.01000000    T
 <Oct18-2020> <22:44:15>  cart. step rms                      0.00249263     0.00666667    T
 <Oct18-2020> <22:44:15>  GEOMETRY CONVERGED
 <Oct18-2020> <22:44:15>  Calculating Energy Terms for Final Geometry
  Coordinates in Geometry Cycle 49
    Atom         X           Y           Z   (Angstrom)
    1.W        -0.955273   -0.065226   -0.609624
    2.O        -2.508777   -0.809032   -0.449282
    3.O        -0.936251    0.769074    1.404867
    4.O        -0.763571   -0.051227   -2.493005
    5.O         0.669198    1.566453   -0.774543
    6.O         0.178420   -1.247377   -0.056879
    7.O        -2.127041    1.917156   -0.672386
    8.H        -3.067477    1.798615   -0.923237
    9.H        -1.800192    2.658913   -1.222637
   10.H         0.121378   -0.226996   -2.875550
   11.H         0.917710    2.175880   -0.049863
   12.H         0.777848    2.077285   -1.602506
   13.H        -0.152764    0.648991    1.981200
   14.H        -1.279564    1.677844    1.541218
 <Oct18-2020> <22:44:15>  >>>> CORORT
 <Oct18-2020> <22:44:15>  >>>> CLSMAT
 <Oct18-2020> <22:44:15>  >>>> ORTHON
 <Oct18-2020> <22:44:15>  >>>> GENPT
 <Oct18-2020> <22:44:15>  Block Length= 128
 <Oct18-2020> <22:44:15>  >>>> PTBAS
 <Oct18-2020> <22:44:16>  combining surface points...
 <Oct18-2020> <22:44:16>  combining surface points...
 <Oct18-2020> <22:44:16>  combining surface points...
 <Oct18-2020> <22:44:16>  >>>> CYCLE
 <Oct18-2020> <22:44:17>              |Error|         MaxErr       Wt(A-DIIS)
 <Oct18-2020> <22:44:17>      1      0.16011547      0.02818939
 <Oct18-2020> <22:44:17>      2      0.57740676      0.17168837    100.0
 <Oct18-2020> <22:44:18>      3      0.16871410      0.02700494    100.0
 <Oct18-2020> <22:44:19>      4      0.28643345      0.08394852    100.0
 <Oct18-2020> <22:44:19>      5      0.37027372      0.09619007    100.0
 <Oct18-2020> <22:44:20>      6      0.06326684      0.01301333     12.1
 <Oct18-2020> <22:44:20>      7      0.05797193      0.01415971     12.1
 <Oct18-2020> <22:44:21>      8      0.02050412      0.00435573      3.4
 <Oct18-2020> <22:44:22>      9      0.00580002      0.00130985      0.3
 <Oct18-2020> <22:44:22>     10      0.00180828      0.00035990      0.0
 <Oct18-2020> <22:44:23>     11      0.00052935      0.00012756      0.0
 <Oct18-2020> <22:44:23>     12      0.00025711      0.00006207      0.0
 <Oct18-2020> <22:44:24>     13      0.00002067      0.00000496      0.0
 <Oct18-2020> <22:44:24>     14      0.00001205      0.00000331      0.0
 <Oct18-2020> <22:44:25>     15      0.00000220      0.00000045      0.0
 <Oct18-2020> <22:44:25>  SCF converged
 <Oct18-2020> <22:44:25>     16      0.00000050      0.00000009      0.0
 <Oct18-2020> <22:44:26>  >>>> TOTEN
 <Oct18-2020> <22:44:27>  QTAIM: determining topology...
 <Oct18-2020> <22:44:27>  >>>> POPAN
 <Oct18-2020> <22:44:27>  >>>> DEBYE
 <Oct18-2020> <22:44:27>  >>>> AMETS
 <Oct18-2020> <22:44:27>  >>>> POPUL
 <Oct18-2020> <22:44:27>   Bond Energy          -2.80000769 a.u.
 <Oct18-2020> <22:44:27>   Bond Energy         -76.19208591 eV
 <Oct18-2020> <22:44:27>   Bond Energy       -1757.03       kcal/mol
 <Oct18-2020> <22:44:27>  >>>> ENHESS
 <Oct18-2020> <22:44:28>  === NUCLEUS:     1
 <Oct18-2020> <22:44:59>  === NUCLEUS:     2
 <Oct18-2020> <22:45:27>  === NUCLEUS:     3
 <Oct18-2020> <22:45:54>  === NUCLEUS:     4
 <Oct18-2020> <22:46:22>  === NUCLEUS:     5
 <Oct18-2020> <22:46:50>  === NUCLEUS:     6
 <Oct18-2020> <22:47:18>  === NUCLEUS:     7
 <Oct18-2020> <22:47:46>  === NUCLEUS:     8
 <Oct18-2020> <22:48:13>  === NUCLEUS:     9
 <Oct18-2020> <22:48:40>  === NUCLEUS:    10
 <Oct18-2020> <22:49:08>  === NUCLEUS:    11
 <Oct18-2020> <22:49:34>  === NUCLEUS:    12
 <Oct18-2020> <22:50:00>  === NUCLEUS:    13
 <Oct18-2020> <22:50:27>  === NUCLEUS:    14
 <Oct18-2020> <22:50:54>  >>>> CALC_HESS_PMAT
 <Oct18-2020> <22:50:56>  >>>> CALC_HESS_WMAT
 <Oct18-2020> <22:50:57>  Symmetry  : NOSYM
 <Oct18-2020> <22:50:57>  >>>> FRAGM
 <Oct18-2020> <22:50:57>  Geometry symmetry displacement    1 out of    4
  Coordinates in Geometry Cycle 49
    Atom         X           Y           Z   (Angstrom)
    1.W        -0.955280   -0.065206   -0.609624
    2.O        -2.508706   -0.809168   -0.449381
    3.O        -0.936369    0.769181    1.404847
    4.O        -0.763694   -0.051420   -2.493018
    5.O         0.669137    1.566328   -0.774944
    6.O         0.178520   -1.247188   -0.056676
    7.O        -2.127146    1.917031   -0.672356
    8.H        -3.067161    1.798797   -0.924922
    9.H        -1.799464    2.659696   -1.220877
   10.H         0.121714   -0.225406   -2.875336
   11.H         0.922812    2.170823   -0.047901
   12.H         0.775987    2.081273   -1.600590
   13.H        -0.153565    0.647723    1.981810
   14.H        -1.278416    1.678440    1.541103
 <Oct18-2020> <22:50:57>  >>>> CORORT
 <Oct18-2020> <22:50:57>  >>>> CLSMAT
 <Oct18-2020> <22:50:57>  >>>> ORTHON
 <Oct18-2020> <22:50:57>  >>>> GENPT
 <Oct18-2020> <22:50:57>  Block Length= 128
 <Oct18-2020> <22:50:57>  >>>> PTBAS
 <Oct18-2020> <22:50:58>  combining surface points...
 <Oct18-2020> <22:50:58>  combining surface points...
 <Oct18-2020> <22:50:58>  combining surface points...
 <Oct18-2020> <22:50:58>  >>>> CYCLE
 <Oct18-2020> <22:50:59>              |Error|         MaxErr       Wt(A-DIIS)
 <Oct18-2020> <22:50:59>      1      0.16041775      0.02358767
 <Oct18-2020> <22:50:59>      2      0.57731917      0.13845177    100.0
 <Oct18-2020> <22:51:00>      3      0.16915126      0.02266725    100.0
 <Oct18-2020> <22:51:01>      4      0.29015722      0.06823995    100.0
 <Oct18-2020> <22:51:01>      5      0.36192083      0.07271163    100.0
 <Oct18-2020> <22:51:02>      6      0.06497023      0.01433819     13.5
 <Oct18-2020> <22:51:02>      7      0.06004535      0.01552877     13.5
 <Oct18-2020> <22:51:03>      8      0.02115817      0.00478900      3.8
 <Oct18-2020> <22:51:03>      9      0.00600664      0.00115364      0.2
 <Oct18-2020> <22:51:04>     10      0.00181007      0.00029067      0.0
 <Oct18-2020> <22:51:05>     11      0.00051001      0.00013070      0.0
 <Oct18-2020> <22:51:05>     12      0.00026054      0.00007054      0.0
 <Oct18-2020> <22:51:06>     13      0.00002117      0.00000393      0.0
 <Oct18-2020> <22:51:06>     14      0.00001390      0.00000316      0.0
 <Oct18-2020> <22:51:07>     15      0.00000221      0.00000042      0.0
 <Oct18-2020> <22:51:07>  SCF converged
 <Oct18-2020> <22:51:07>     16      0.00000055      0.00000008      0.0
 <Oct18-2020> <22:51:07>  >>>> TOTEN
 <Oct18-2020> <22:51:07>  >>>> POPAN
 <Oct18-2020> <22:51:07>  >>>> DEBYE
 <Oct18-2020> <22:51:07>  >>>> ENGRAD
 <Oct18-2020> <22:51:08>  Geometry symmetry displacement    2 out of    4
  Coordinates in Geometry Cycle 49
    Atom         X           Y           Z   (Angstrom)
    1.W        -0.955267   -0.065246   -0.609625
    2.O        -2.508848   -0.808896   -0.449182
    3.O        -0.936133    0.768966    1.404887
    4.O        -0.763449   -0.051035   -2.492993
    5.O         0.669260    1.566579   -0.774142
    6.O         0.178320   -1.247567   -0.057082
    7.O        -2.126936    1.917280   -0.672416
    8.H        -3.067794    1.798433   -0.921551
    9.H        -1.800919    2.658131   -1.224397
   10.H         0.121042   -0.228585   -2.875765
   11.H         0.912609    2.180938   -0.051825
   12.H         0.779709    2.073297   -1.604421
   13.H        -0.151962    0.650259    1.980590
   14.H        -1.280713    1.677249    1.541333
 <Oct18-2020> <22:51:08>  >>>> CORORT
 <Oct18-2020> <22:51:08>  >>>> CLSMAT
 <Oct18-2020> <22:51:08>  >>>> ORTHON
 <Oct18-2020> <22:51:08>  >>>> GENPT
 <Oct18-2020> <22:51:09>  Block Length= 128
 <Oct18-2020> <22:51:09>  >>>> PTBAS
 <Oct18-2020> <22:51:09>  combining surface points...
 <Oct18-2020> <22:51:09>  combining surface points...
 <Oct18-2020> <22:51:09>  combining surface points...
 <Oct18-2020> <22:51:09>  >>>> CYCLE
 <Oct18-2020> <22:51:10>              |Error|         MaxErr       Wt(A-DIIS)
 <Oct18-2020> <22:51:10>      1      0.16100331      0.02355890
 <Oct18-2020> <22:51:11>      2      0.57785412      0.13813261    100.0
 <Oct18-2020> <22:51:11>      3      0.16907820      0.02264220    100.0
 <Oct18-2020> <22:51:12>      4      0.28959122      0.06784521    100.0
 <Oct18-2020> <22:51:12>      5      0.36375898      0.07288914    100.0
 <Oct18-2020> <22:51:13>      6      0.06442135      0.01388540     13.0
 <Oct18-2020> <22:51:14>      7      0.05805922      0.01490776     13.0
 <Oct18-2020> <22:51:14>      8      0.02131587      0.00478408      3.8
 <Oct18-2020> <22:51:15>      9      0.00600666      0.00115170      0.2
 <Oct18-2020> <22:51:15>     10      0.00188680      0.00029128      0.0
 <Oct18-2020> <22:51:16>     11      0.00066950      0.00017726      0.0
 <Oct18-2020> <22:51:16>     12      0.00022901      0.00005656      0.0
 <Oct18-2020> <22:51:17>     13      0.00002092      0.00000393      0.0
 <Oct18-2020> <22:51:17>     14      0.00001331      0.00000306      0.0
 <Oct18-2020> <22:51:18>     15      0.00000218      0.00000042      0.0
 <Oct18-2020> <22:51:18>  SCF converged
 <Oct18-2020> <22:51:18>     16      0.00000052      0.00000008      0.0
 <Oct18-2020> <22:51:18>  >>>> TOTEN
 <Oct18-2020> <22:51:19>  >>>> POPAN
 <Oct18-2020> <22:51:19>  >>>> DEBYE
 <Oct18-2020> <22:51:19>  >>>> ENGRAD
 <Oct18-2020> <22:51:20>  Old frequency:   -182.70706, new:    -66.08526
 <Oct18-2020> <22:51:20>  Geometry symmetry displacement    3 out of    4
  Coordinates in Geometry Cycle 49
    Atom         X           Y           Z   (Angstrom)
    1.W        -0.955284   -0.065220   -0.609610
    2.O        -2.508786   -0.809017   -0.449264
    3.O        -0.936080    0.768954    1.404909
    4.O        -0.763587   -0.051314   -2.493001
    5.O         0.669037    1.566614   -0.774571
    6.O         0.178444   -1.247384   -0.056972
    7.O        -2.127195    1.916938   -0.672358
    8.H        -3.066242    1.799862   -0.929095
    9.H        -1.796870    2.661066   -1.217334
   10.H         0.121203   -0.227788   -2.875583
   11.H         0.917503    2.176906   -0.050606
   12.H         0.778986    2.075935   -1.603292
   13.H        -0.151936    0.650698    1.980730
   14.H        -1.281552    1.676851    1.541638
 <Oct18-2020> <22:51:20>  >>>> CORORT
 <Oct18-2020> <22:51:20>  >>>> CLSMAT
 <Oct18-2020> <22:51:20>  >>>> ORTHON
 <Oct18-2020> <22:51:20>  >>>> GENPT
 <Oct18-2020> <22:51:20>  Block Length= 128
 <Oct18-2020> <22:51:20>  >>>> PTBAS
 <Oct18-2020> <22:51:20>  combining surface points...
 <Oct18-2020> <22:51:20>  combining surface points...
 <Oct18-2020> <22:51:20>  combining surface points...
 <Oct18-2020> <22:51:20>  >>>> CYCLE
 <Oct18-2020> <22:51:21>              |Error|         MaxErr       Wt(A-DIIS)
 <Oct18-2020> <22:51:21>      1      0.16072489      0.02360399
 <Oct18-2020> <22:51:22>      2      0.57812124      0.13863176    100.0
 <Oct18-2020> <22:51:22>      3      0.16986532      0.02273734    100.0
 <Oct18-2020> <22:51:23>      4      0.29525029      0.06939250    100.0
 <Oct18-2020> <22:51:24>      5      0.35200729      0.07072571    100.0
 <Oct18-2020> <22:51:24>      6      0.06761364      0.01540186     14.5
 <Oct18-2020> <22:51:25>      7      0.06170579      0.01644124     14.5
 <Oct18-2020> <22:51:25>      8      0.02222677      0.00516464      4.2
 <Oct18-2020> <22:51:26>      9      0.00633775      0.00125323      0.3
 <Oct18-2020> <22:51:26>     10      0.00187280      0.00028980      0.0
 <Oct18-2020> <22:51:27>     11      0.00066319      0.00017523      0.0
 <Oct18-2020> <22:51:28>     12      0.00023070      0.00005738      0.0
 <Oct18-2020> <22:51:28>     13      0.00002168      0.00000410      0.0
 <Oct18-2020> <22:51:29>     14      0.00001601      0.00000349      0.0
 <Oct18-2020> <22:51:29>     15      0.00000222      0.00000037      0.0
 <Oct18-2020> <22:51:29>  SCF converged
 <Oct18-2020> <22:51:30>     16      0.00000056      0.00000008      0.0
 <Oct18-2020> <22:51:30>  >>>> TOTEN
 <Oct18-2020> <22:51:30>  >>>> POPAN
 <Oct18-2020> <22:51:30>  >>>> DEBYE
 <Oct18-2020> <22:51:30>  >>>> ENGRAD
 <Oct18-2020> <22:51:31>  Geometry symmetry displacement    4 out of    4
  Coordinates in Geometry Cycle 49
    Atom         X           Y           Z   (Angstrom)
    1.W        -0.955263   -0.065232   -0.609638
    2.O        -2.508768   -0.809047   -0.449300
    3.O        -0.936422    0.769193    1.404824
    4.O        -0.763556   -0.051141   -2.493009
    5.O         0.669360    1.566293   -0.774515
    6.O         0.178396   -1.247370   -0.056787
    7.O        -2.126887    1.917374   -0.672414
    8.H        -3.068712    1.797369   -0.917379
    9.H        -1.803514    2.656760   -1.227941
   10.H         0.121554   -0.226203   -2.875518
   11.H         0.917918    2.174854   -0.049119
   12.H         0.776709    2.078635   -1.601719
   13.H        -0.153591    0.647284    1.981670
   14.H        -1.277576    1.678837    1.540799
 <Oct18-2020> <22:51:31>  >>>> CORORT
 <Oct18-2020> <22:51:31>  >>>> CLSMAT
 <Oct18-2020> <22:51:31>  >>>> ORTHON
 <Oct18-2020> <22:51:31>  >>>> GENPT
 <Oct18-2020> <22:51:31>  Block Length= 128
 <Oct18-2020> <22:51:31>  >>>> PTBAS
 <Oct18-2020> <22:51:31>  combining surface points...
 <Oct18-2020> <22:51:31>  combining surface points...
 <Oct18-2020> <22:51:31>  combining surface points...
 <Oct18-2020> <22:51:31>  >>>> CYCLE
 <Oct18-2020> <22:51:33>              |Error|         MaxErr       Wt(A-DIIS)
 <Oct18-2020> <22:51:33>      1      0.16027414      0.02352880
 <Oct18-2020> <22:51:33>      2      0.57634123      0.13791235    100.0
 <Oct18-2020> <22:51:34>      3      0.16812711      0.02255370    100.0
 <Oct18-2020> <22:51:34>      4      0.28296118      0.06641587    100.0
 <Oct18-2020> <22:51:35>      5      0.37676006      0.07551259    100.0
 <Oct18-2020> <22:51:36>      6      0.06193910      0.01254106     11.7
 <Oct18-2020> <22:51:36>      7      0.05685571      0.01397521     11.7
 <Oct18-2020> <22:51:37>      8      0.02021902      0.00431553      3.3
 <Oct18-2020> <22:51:37>      9      0.00565515      0.00114644      0.1
 <Oct18-2020> <22:51:38>     10      0.00177986      0.00028759      0.0
 <Oct18-2020> <22:51:38>     11      0.00040607      0.00009754      0.0
 <Oct18-2020> <22:51:39>     12      0.00027132      0.00007624      0.0
 <Oct18-2020> <22:51:39>     13      0.00002063      0.00000386      0.0
 <Oct18-2020> <22:51:40>     14      0.00001110      0.00000269      0.0
 <Oct18-2020> <22:51:40>     15      0.00000220      0.00000048      0.0
 <Oct18-2020> <22:51:41>  SCF converged
 <Oct18-2020> <22:51:41>     16      0.00000048      0.00000007      0.0
 <Oct18-2020> <22:51:41>  >>>> TOTEN
 <Oct18-2020> <22:51:41>  >>>> POPAN
 <Oct18-2020> <22:51:41>  >>>> DEBYE
 <Oct18-2020> <22:51:41>  >>>> ENGRAD
 <Oct18-2020> <22:51:42>  Old frequency:   -164.73588, new:    208.16399
 <Oct18-2020> <22:51:42>  NOTE: Some frequencies have been re-calculated by numerical differentiation
 <Oct18-2020> <22:51:42>        Check the text output file for new values!
 <Oct18-2020> <22:51:42>  NORMAL TERMINATION
 <Oct18-2020> <22:51:42>  END
