
 *******************************************************************************
 *                                                                             *
 *  -------------------------------------                                      *
 *   Amsterdam Density Functional  (ADF)         2019                          *
 *  -------------------------------------                                      *
 *                                               r79301 2019-11-09             *
 *                                                                             *
 *                                                                             *
 *                            =====================                            *
 *                            |                   |                            *
 *                            |     D I R A C     |                            *
 *                            |                   |                            *
 *                            =====================                            *
 *                                                                             *
 *                                                                             *
 *   Online information and documentation:  https://www.scm.com/support/       *
 *   E-mail:  support@scm.com   info@scm.com                                   *
 *                                                                             *
 *   Scientific publications using ADF results must be properly referenced     *
 *   See the User Manuals (or the web site) for recommended citations          *
 *   The terms and conditions of the End User License Agreement apply to       *
 *   the use of ADF, https://www.scm.com/license-terms/                        *
 *                                                                             *
 **********************  x86_64_linux_intel / intelmpi  ************************
 
 
 
  
 DIRAC 2019  RunTime: Oct20-2020 23:14:14  Nodes: 1  Procs: 1

 Temporary files are created in /scratch/kid_0.1869596816 (0x58465342)

1
 OXYGEN ATOM 1s CORE RELATIVISTIC, Point Nuc, A and c from li
 N J RN H ZN XION ANUC CLIGHT
 5000    4100.00000000197.36710137  8.00000000  0.00000000   15.994914  0.1370360E+03
  PH   PHI     EPS        DEL        DELRVR
  0.30  0.30     2500.00  0.00001000  0.00001000
 IDIRC  NC1  NDEBU NPRIN  IPUN IRCOR IWCOR
   1   300     0     0     0     0     1
   XALPHA      XLATTER      RNUC
  0.70000000  0.00000000  0.00000000 Point Charge
   XN   XL   XJ      XE          XZ      XDELL
  1.0  0.0  0.5      -5.000       2.000     0.00000
  2.0  0.0  0.5      -1.000       2.000     0.00000
  2.0  1.0  0.5      -1.000       2.000     0.00000
  2.0  1.0  1.5      -1.000       2.000     0.00000
 ICORP=  0  NPCL=  0  DEMP=0.00  PEPS=0.000000
 R(1)=  0.1000000E-08 D=  0.1005080E+01 RNUC=  0.0000000E+00
 converged at cycle   28  DENSITY AVERAGING    0.2400
  MAXIMUM ERROR IN R.V(R) IS   0.81125670E-05
 Q,EY,EV,EZ,ESUM,ETOT,RHO  0.800000E+01 -0.101247E+02 -0.114961E+03 -0.177573E+03 -0.405053E+02 -0.743427E+02  0.414766E-14


 DIRAC CALCULATION
1                    OXYGEN ATOM 1s CORE RELATIVISTIC, Point Nuc, A and c from libtc


 EXCHANGE COEFFICIENT=  0.7000000           TAIL CORRECTION=  0.           NUCLEAR RADIUS=  0.000E+00
0                       ORBITAL    N    L    J     ELECTRONS     EIGENVALUE                DELTA OF EIGENV.

                          1S1/2  1.0  0.0  0.5     2.000       -0.1880014E+02                 0.7264358E-06
                          2S1/2  2.0  0.0  0.5     2.000       -0.8412236E+00                 0.5932752E-05
                          2P1/2  2.0  1.0  0.5     2.000       -0.3063203E+00                 0.5998471E-05
                          2P3/2  2.0  1.0  1.5     2.000       -0.3049609E+00                 0.5986971E-05


                                        NUCLEAR CHARGE=    8.000000
                            INTEGRAL OF CHARGE DENSITY=    8.000000
                           SUM OF THE ORBITAL ENERGIES=    -40.5053
                                          TOTAL ENERGY=    -74.3427
                                        KINETIC ENERGY=     74.4552
                             NUCLEAR ATTRACTION ENERGY=   -177.5730
                             ELECTRON REPULSION ENERGY=     36.3686
                                       EXCHANGE ENERGY=     -7.5935

 *******************************************************************************

                             D I R A C   E X I T
 NORMAL TERMINATION



 =================
 Timing Statistics
 =================
  
 Total Used :                     CPU=        0.11      System=        0.00     Elapsed=        0.11

 Calls  Section                     ( Mean, Percentage )
 ---------------------------------------------------------------------------------------------------
     2  ><      ................      0.00    0.00             0.00    0.00             0.00    0.00
     1  EXIT PROCEDURE .........      0.11  100.00             0.00    0.00             0.11  100.00


 Currently Open Files (EXIT00)
 ====================

 Unit    Access Format  Status   Type       Ident (file)
 -------------------------------------------------------
   3      SEQ    FORM   TRANSP  NORMAL      LOGFILE
                                          ( logfile )
 
Create O   file=TZP-O.1s
XC
  GGA PBE
End
relativistic ZORA
Corepotentials t12.rel
End

 *******************************************************************************
 *                                                                             *
 *  -------------------------------------                                      *
 *   Amsterdam Density Functional  (ADF)         2019                          *
 *  -------------------------------------                                      *
 *                                               r79301 2019-11-09             *
 *                                                                             *
 *                                                                             *
 *                              =================                              *
 *                              |               |                              *
 *                              |     A D F     |                              *
 *                              |               |                              *
 *                              =================                              *
 *                                                                             *
 *                                                                             *
 *   Online information and documentation:  https://www.scm.com/support/       *
 *   E-mail:  support@scm.com   info@scm.com                                   *
 *                                                                             *
 *   Scientific publications using ADF results must be properly referenced     *
 *   See the User Manuals (or the web site) for recommended citations          *
 *   The terms and conditions of the End User License Agreement apply to       *
 *   the use of ADF, https://www.scm.com/license-terms/                        *
 *                                                                             *
 **********************  x86_64_linux_intel / intelmpi  ************************
 
 
 
  
 ADF 2019  RunTime: Oct20-2020 23:14:14  Nodes: 1  Procs: 1

 Temporary files are created in /scratch/kid_0.619123216 (0x58465342)

 Oxygen (TZP, 1s frozen)



 ===========================
 A T T A C H E D   F I L E S
 ===========================
  
 CREATE - Data File:    TZP-O.1s
                        Oxygen (TZP, 1s frozen)
 Core Potentials:
         file : t12.rel



 ===============================
 M O D E L   P A R A M E T E R S
 ===============================
  
 DENSITY FUNCTIONAL POTENTIAL (scf)
    LDA:                               PW92                                    == Not Default ==
    Gradient Corrections:              PBEc PBEx                               == Not Default ==

 SPIN  (restricted / unrestr.)
    Molecule:                          Restricted                               

 OTHER ASPECTS
    Relativistic Corrections:          scalar (ZORA,MAPA)                      == Not Default ==

    Nuclear Charge Density Model:      Point Charge Nuclei                      
    Core Treatment:                    Frozen Orbital(s)                        

    Hyperfine or Zeeman Interaction:   ---                                      



 =====================================
 S Y M M E T R Y ,   E L E C T R O N S
 =====================================
  
 Symmetry: ATOM

 Irreducible Representations, including subspecies
 -------------------------------------------------
 S
 P:x  P:y  P:z
 D:z2  D:x2-y2  D:xy  D:xz  D:yz
 F:z3  F:z  F:xyz  F:z2x  F:z2y  F:x  F:y


 Configuration of Valence Electrons
 ==================================

          Occupation Numbers
          -------------------------------------------------
 S        2
 P        4
 D        0
 F        0
          -------------------------------------------------

 Total:   6

 Net Charge: 0 (Nuclei minus Electrons)

 Preset values for MO occupations will be applied through SCF cycle no. 1000000
 Thereafter, the program will assign electrons to MOs that are spatially
 similar to the occupied MOs in a "reference" cycle ("KeepOrbitals").
 The reference cycle is always the PREVIOUS cycle: it will evolve with
 the SCF procedure.



 ================================
 (Slater-type)  F U N C T I O N S  ***  (Basis and Fit)  ***
 ================================
  

 Atom Type    1  (O)
 ==============

 Valence Basis Sets:   8
 -----------------------
   1 S    7.360000
   2 S    1.720000
   2 S    2.880000
   2 S    7.580000
   2 P    1.120000
   2 P    2.080000
   2 P    4.080000
   3 D    2.000000

 Frozen Core Shells
 ------------------
    S:  1


 BAS: List of all Elementary Cartesian Basis Functions
 =====================================================

 The numbering in the list below (to the right of the function characteristics) is referred
 to in print-outs of MO eigenvectors and Mulliken populations in the BAS representation
 (as contrasted to the SFO representation).

 Notes:
 1. The functions are characterized by a polynomial prefactor (powers of x,y,z and r) and
    an exponential decay factor alpha.
 2. Since the basis sets are specific for an atom TYPE, the individual functions occur on
    all atoms of that type.
 3. The word 'Core' in the left margin signals that it is a Core Function (CF) : not a
    degree of freedom in the valence set, but only used to ensure orthogonalization of
    the other valence basis functions on the frozen Core Orbitals.


 (power of) X  Y  Z  R     Alpha  on Atom
            ==========     =====     ==========

 O                                    1
                                  ---------------------------------------------------------------------------
    Core    0  0  0  0     7.360      1
            0  0  0  1     1.720      2
            0  0  0  1     2.880      3
            0  0  0  1     7.580      4
            1  0  0  0     1.120      5
            0  1  0  0     1.120      6
            0  0  1  0     1.120      7
            1  0  0  0     2.080      8
            0  1  0  0     2.080      9
            0  0  1  0     2.080     10
            1  0  0  0     4.080     11
            0  1  0  0     4.080     12
            0  0  1  0     4.080     13
            2  0  0  0     2.000     14
            1  1  0  0     2.000     15
            1  0  1  0     2.000     16
            0  2  0  0     2.000     17
            0  1  1  0     2.000     18
            0  0  2  0     2.000     19

 Total number of charge fitting functions (nprimf)        82
 Total number of Cartesian basis functions (naos)         19
 Total number of Cartesian core functions  (ncos)          1



 BAS: List of all Elementary Cartesian Basis Functions
 =====================================================

 The numbering in the list below (to the right of the function characteristics) is referred
 to in print-outs of MO eigenvectors and Mulliken populations in the BAS representation
 (as contrasted to the SFO representation).

 Notes:
 1. The functions are characterized by a polynomial prefactor (powers of x,y,z and r) and
    an exponential decay factor alpha.
 2. Since the basis sets are specific for an atom TYPE, the individual functions occur on
    all atoms of that type.
 3. The word 'Core' in the left margin signals that it is a Core Function (CF) : not a
    degree of freedom in the valence set, but only used to ensure orthogonalization of
    the other valence basis functions on the frozen Core Orbitals.


 (power of) X  Y  Z  R     Alpha  on Atom
            ==========     =====     ==========

 O                                    1
                                  ---------------------------------------------------------------------------
    Core    0  0  0  0     7.360      1
            0  0  0  1     1.720      2
            0  0  0  1     2.880      3
            0  0  0  1     7.580      4
            1  0  0  0     1.120      5
            0  1  0  0     1.120      6
            0  0  1  0     1.120      7
            1  0  0  0     2.080      8
            0  1  0  0     2.080      9
            0  0  1  0     2.080     10
            1  0  0  0     4.080     11
            0  1  0  0     4.080     12
            0  0  1  0     4.080     13
            2  0  0  0     2.000     14
            1  1  0  0     2.000     15
            1  0  1  0     2.000     16
            0  2  0  0     2.000     17
            0  1  1  0     2.000     18
            0  0  2  0     2.000     19
1
 ***************************************************************************************************



                                              ***********************
                                              *  T E C H N I C A L  *
                                              ***********************
  



 =============================================================
 P A R A L L E L I Z A T I O N  and  V E C T O R I Z A T I O N
 =============================================================
  
 Nr of parallel processes:                                1
 Maximum vector length in NumInt loops:                 128



 =====================
 S C F   U P D A T E S
 =====================
  
 Max. nr. of cycles:                               300
 Convergence criterion:                              0.0000000100
   secondary criterion:                              0.0000000100

 Mix parameter (when DIIS does not apply):           0.2000000000
 Special mix parameter for the first cycle:          1.0000000000
 Mixed ADIIS+SDIIS will be used                  
    Max number of expansion vectors:                10
    Pure ADIIS when Max([F,P]) is above              0.1000000000
    Pure SDIIS when Max([F,P]) is below              0.0010000000
 Automatic ElectronSmearing (in case of problematic SCF convergence) disabled



 =================
 P R E C I S I O N  ***  (General: NumInt, NeglectFunctionTails, ...)  ***
 =================
  

 NumInt:           Target precision:                12.0000000000
 -------           Initial precision:               10.0000000000
                   Min. precision (optimization):   10.0000000000

 Neglect Functions:          Basis functions:        0.1000000000E-13
 ------------------          Fit functions:          0.1000000000E-13



 ===========================
 L I N E A R   S C A L I N G
 ===========================
  

 Cut-off radii density fit:                        0.1000000000E-97
 Overlap cut-off criterion AO matrix elements:     0.1000000000E-97
 Cut-offs for Coulomb potential and fitted density:0.1000000000E-97
 Cut-off criterion for Coulomb multipole terms:    0.1000000000E-97
 Progressive Convergence parameter:                 0.000000000    
1
 ***************************************************************************************************



                                            ***************************
                                            *  C O M P U T A T I O N  *
                                            ***************************
  

 Number of elements of the density matrix on this node (used, total):       190       190



 ===========================================
 Numerical Integration : Fuzzy Cells (Becke)
 ===========================================
  
 Becke grid quality: VERYGOOD       
  
 Lebedev angular grid order:             min:  13 max:  41
 Nr. of radial points:                   min:  68 max:  68

 Total nr. of points:         68
 Nr. of blocks:                1
 Block length:                68
 Nr. of dummy points:          0


 Test of Precision of the Numerical Integration Grid
 ===================================================

 Integral of the Total Core Density:                   1.99999999865610
 Relative Error:                                      -6.720E-10



 ========================
 Density Fitting (zlmFit)
 ========================
  
 ZlmFit Fit Quality: VERYGOOD       
  
 Max L-expansion:                        min:   0 max:   0
 Nr. of radial interpolation points:     min: 140 max: 140



 =====
 S C F  ***  ScaSCF  ***
 =====
  

 CYCLE    1
 SCF Error: norm([F,P])=      0.000000000000, max([F,P])=      0.000000000000
 orbitals (Q,E):
 ---------------
 S :1...3            ( 2.00    -5.3654)  ( 0.00    -2.2073)  ( 0.00    23.6692)
 P :1...3            ( 4.00    -5.0045)  ( 0.00    -2.0150)  ( 0.00    -0.3846)
 D :1...1            ( 0.00    -2.0410)

 CYCLE    2
 SCF Error: norm([F,P])=      4.562993374873, max([F,P])=      2.528971113813
 orbitals (Q,E):
 ---------------
 S :1...2            ( 2.00    -0.1548)  ( 0.00     1.6948)
 P :1...2            ( 4.00     0.1773)  ( 0.00     0.9552)
 D :1...1            ( 0.00     1.4649)

 CYCLE    3
  SDIIS (wt  0.000):  0.3378  0.6622
 A-DIIS (wt  1.000):  0.4814  0.5186
  DIIS coefficients:  0.4814  0.5186
 SCF Error: norm([F,P])=      2.723155250500, max([F,P])=      1.798667049295
 orbitals (Q,E):
 ---------------
 S :1...2            ( 2.00    -1.1093)  ( 0.00     0.7549)
 P :1...2            ( 4.00    -0.5518)  ( 0.00     0.2590)
 D :1...1            ( 0.00     0.8910)

 CYCLE    4
  SDIIS (wt  0.000):  0.0919  0.9081
 A-DIIS (wt  1.000):  0.0000  1.0000
  DIIS coefficients:  0.0000  1.0000
 SCF Error: norm([F,P])=      0.289027138405, max([F,P])=      0.130648623511
 orbitals (Q,E):
 ---------------
 S :1...2            ( 2.00    -0.7707)  ( 0.00     0.9912)
 P :1...2            ( 4.00    -0.2284)  ( 0.00     0.4046)
 D :1...1            ( 0.00     1.1288)

 CYCLE    5
  SDIIS (wt  0.000):  0.0260  0.6740  0.3001
 A-DIIS (wt  1.000):  0.0000  0.5764  0.4236
  DIIS coefficients:  0.0000  0.5764  0.4236
 SCF Error: norm([F,P])=      0.416615089426, max([F,P])=      0.232643669786
 orbitals (Q,E):
 ---------------
 S :1...2            ( 2.00    -0.8764)  ( 0.00     0.9107)
 P :1...2            ( 4.00    -0.3280)  ( 0.00     0.3557)
 D :1...1            ( 0.00     1.0703)

 CYCLE    6
  SDIIS (wt  0.942):  0.0005  0.0237 -0.0203  0.9960
 A-DIIS (wt  0.058):  0.0000  0.0000  0.0000  1.0000
  DIIS coefficients:  0.0005  0.0224 -0.0191  0.9962
 SCF Error: norm([F,P])=      0.013723272809, max([F,P])=      0.006719036732
 orbitals (Q,E):
 ---------------
 S :1...2            ( 2.00    -0.8830)  ( 0.00     0.9058)
 P :1...2            ( 4.00    -0.3343)  ( 0.00     0.3521)
 D :1...1            ( 0.00     1.0657)

 CYCLE    7
  SDIIS (wt  1.000): -0.0000  0.0016  0.0023  0.0424  0.9537
  DIIS coefficients: -0.0000  0.0016  0.0023  0.0424  0.9537
 SCF Error: norm([F,P])=      0.001103645928, max([F,P])=      0.000634039171
 orbitals (Q,E):
 ---------------
 S :1...2            ( 2.00    -0.8827)  ( 0.00     0.9060)
 P :1...2            ( 4.00    -0.3340)  ( 0.00     0.3523)
 D :1...1            ( 0.00     1.0659)

 CYCLE    8
  SDIIS (wt  1.000): -0.0000 -0.0001  0.0000 -0.0032  0.0268  0.9765
  DIIS coefficients: -0.0000 -0.0001  0.0000 -0.0032  0.0268  0.9765
 SCF Error: norm([F,P])=      0.000035919805, max([F,P])=      0.000020263970
 orbitals (Q,E):
 ---------------
 S :1...2            ( 2.00    -0.8827)  ( 0.00     0.9060)
 P :1...2            ( 4.00    -0.3340)  ( 0.00     0.3522)
 D :1...1            ( 0.00     1.0659)

 CYCLE    9
  SDIIS (wt  1.000): -0.0000  0.0008  0.0188  0.9804
  DIIS coefficients: -0.0000  0.0008  0.0188  0.9804
 SCF Error: norm([F,P])=      0.000000326384, max([F,P])=      0.000000183924
 orbitals (Q,E):
 ---------------
 S :1...2            ( 2.00    -0.8827)  ( 0.00     0.9060)
 P :1...2            ( 4.00    -0.3340)  ( 0.00     0.3522)
 D :1...1            ( 0.00     1.0659)

 CYCLE   10
  SDIIS (wt  1.000):  0.0000  0.0003  0.9996
  DIIS coefficients:  0.0000  0.0003  0.9996
 SCF Error: norm([F,P])=      0.000000000559, max([F,P])=      0.000000000306
 orbitals (Q,E):
 ---------------
 S :1...2            ( 2.00    -0.8827)  ( 0.00     0.9060)
 P :1...2            ( 4.00    -0.3340)  ( 0.00     0.3522)
 D :1...1            ( 0.00     1.0659)

 SCF CONVERGED

 CYCLE   11
1
 ***************************************************************************************************



                                                *******************
                                                *  R E S U L T S  *
                                                *******************
  
 *** Using FIT density in Focky
  SDIIS (wt  1.000): -0.0000  0.0143  0.9857
  DIIS coefficients: -0.0000  0.0143  0.9857
 SCF Error: norm([F,P])=      0.000000000010, max([F,P])=      0.000000000006

 Scaled ZORA Orbital Energies, per Irrep and Spin:
 =================================================
                        Occup              E (au)              E (eV)       Diff (eV) with prev. cycle
                        -----      --------------------        ------       --------------------------
 S
               1        2.000     -0.88272313143209E+00       -24.020              -9.28E-11
               2        0.000      0.90601345014671E+00        24.654
               3        0.000      0.29578810816937E+02       804.880
 P
               1        4.000     -0.33400585272070E+00        -9.089              -8.94E-11
               2        0.000      0.35224911365993E+00         9.585
               3        0.000      0.38342927625315E+01       104.336
 D
               1        0.000      0.10658965783141E+01        29.005


 Partially Occupied:
               1 P                -0.33400585272070E+00
  
 HOMO :        1 S                -0.88272313143209E+00
 LUMO :        2 P                 0.35224911365993E+00
  


 Orbital Energies, all Irreps
 ========================================

 Irrep        no.  (spin)   Occup              E (au)                E (eV)
 ---------------------------------------------------------------------------
 S             1             2.00       -0.88272313143209E+00       -24.0201
 P             1             4.00       -0.33400585272070E+00        -9.0888
 P             2             0.00        0.35224911365993E+00         9.5852
 S             2             0.00        0.90601345014671E+00        24.6539
 D             1             0.00        0.10658965783141E+01        29.0045
 P             3             0.00        0.38342927625315E+01       104.3364
 S             3             0.00        0.29578810816937E+02       804.8804


 Scaled ZORA Orbital Energies of the Core Orbitals:
 ==================================================

 (Note that the atoms are grouped by atomtype, see the labels, and may hence NOT be in input order)

 AtomType  Orbital  Atom                   E (au)                        E (eV)
 --------  -------  ----           --------------------        ----------------
 O           1S        1          -0.18925919758629E+02                -515.000



 =======================================
 M U L L I K E N   P O P U L A T I O N S
 =======================================
  
 The survey below gives for each atom:
 a) the total charge (Z minus electrons)
 b) the net spin polarization (nr of electrons spin-A minus spin-B)
 c) for each spin the atomic electron valence density (integrated) per L-value.

 Atom              Charge    Spin density          S         P         D         F
 ----              ------    ------------       ------    ------    ------    ------
 1 O              -0.0000                       2.0000    4.0000    0.0000    0.0000

 Populations of individual BAS functions
 ----------------------------------------
 1 O            0.0005  0.9226  1.0966 -0.0196  0.3346  0.3346  0.3346  0.7512  0.7512  0.7512
                0.2476  0.2476  0.2476  0.0000  0.0000  0.0000  0.0000  0.0000  0.0000

 Gross Charges per Atom (Z minus electrons)
 ==========================================
            -0.0000
 Net Total: -0.00000000



 =======================================================================
 Electrostatic potential at the Nuclei due to electrons and other nuclei
 =======================================================================
  
         Atom                  Potential
         ----                  ---------
     1)   O                  22.20265662
 
 
 ========================
 No memory problems found
 ========================
 
 Maximum number of active allocate calls:         389
 
 *******************************************************************************

                             A D F   E X I T
 NORMAL TERMINATION



 =================
 Timing Statistics
 =================
  
 Total Used :                     CPU=        0.43      System=        0.02     Elapsed=        0.49

 Calls  Section                     ( Mean, Percentage )
 ---------------------------------------------------------------------------------------------------
     3  ><      ................      0.00    0.00             0.00   20.00             0.00    0.80
     1  INIT    ................      0.07   16.67             0.00    0.00             0.09   17.53
     1  GEOMET  ................      0.02    3.70             0.00   20.00             0.02    4.65
     1  INPUTA  ................      0.00    0.93             0.00    0.00             0.00    0.70
     1  MAINSY  ................      0.00    0.93             0.00   20.00             0.01    2.85
     1  SYMFIT  ................      0.00    0.93             0.00    0.00             0.00    0.33
     1  CORORT  ................      0.00    0.00             0.00    0.00             0.00    0.29
     1  SYMORB  ................      0.00    0.00             0.00    0.00             0.00    0.18
     1  CLSMAT  ................      0.01    1.85             0.00    0.00             0.01    1.18
     1  ORTHON  ................      0.00    0.93             0.00    0.00             0.01    1.07
     1  GENPT   ................      0.02    3.70             0.00    0.00             0.01    3.04
     1  PTBAS   ................      0.00    0.00             0.00    0.00             0.01    1.13
    11  FOCKY   ................      0.02   55.56             0.00   20.00             0.02   50.80
    11  FOCKTR  ................      0.00    0.93             0.00    0.00             0.00    1.56
    11  SDIIS   ................      0.00    6.48             0.00    0.00             0.00    6.09
     1  COREPS  ................      0.01    2.78             0.00   20.00             0.02    3.59
     1  POPAN   ................      0.00    0.93             0.00    0.00             0.01    1.10
     1  DEBYE   ................      0.00    0.93             0.00    0.00             0.00    0.38
     1  EXIT PROCEDURE .........      0.01    2.78             0.00    0.00             0.01    2.72


 Currently Open Files (EXIT00)
 ====================

 Unit    Access Format  Status   Type       Ident (file)
 -------------------------------------------------------
   3      SEQ    FORM   TRANSP  NORMAL      LOGFILE
                                          ( logfile )

 ***************************************************************************************************
 (LOGFILE)
 <Oct20-2020> <23:14:14>  DIRAC 2019  RunTime: Oct20-2020 23:14:14  Nodes: 1  Procs: 1
 <Oct20-2020> <23:14:14>  NORMAL TERMINATION
 <Oct20-2020> <23:14:14>  END
 <Oct20-2020> <23:14:14>  ADF 2019  RunTime: Oct20-2020 23:14:14  Nodes: 1  Procs: 1
 <Oct20-2020> <23:14:14>  Oxygen (TZP, 1s frozen)
 <Oct20-2020> <23:14:14>  RunType   : CREATE
 <Oct20-2020> <23:14:14>  Net Charge: 0 (Nuclei minus Electrons)
 <Oct20-2020> <23:14:14>  Symmetry  : ATOM
  Coordinates
    Atom         X           Y           Z   (Angstrom)
    1.O         0.000000    0.000000    0.000000
 <Oct20-2020> <23:14:14>  >>>> CORORT
 <Oct20-2020> <23:14:14>  >>>> CLSMAT
 <Oct20-2020> <23:14:14>  >>>> ORTHON
 <Oct20-2020> <23:14:14>  >>>> GENPT
 <Oct20-2020> <23:14:14>  Block Length=  68
 <Oct20-2020> <23:14:14>  >>>> PTBAS
 <Oct20-2020> <23:14:14>  >>>> CYCLE
 <Oct20-2020> <23:14:14>              |Error|         MaxErr       Wt(A-DIIS)
 <Oct20-2020> <23:14:14>      1      0.00000000      0.00000000
 <Oct20-2020> <23:14:14>      2      4.56299337      2.52897111
 <Oct20-2020> <23:14:14>      3      2.72315525      1.79866705    100.0
 <Oct20-2020> <23:14:14>      4      0.28902714      0.13064862    100.0
 <Oct20-2020> <23:14:14>      5      0.41661509      0.23264367    100.0
 <Oct20-2020> <23:14:14>      6      0.01372327      0.00671904      5.8
 <Oct20-2020> <23:14:14>      7      0.00110365      0.00063404      0.0
 <Oct20-2020> <23:14:14>      8      0.00003592      0.00002026      0.0
 <Oct20-2020> <23:14:14>      9      0.00000033      0.00000018      0.0
 <Oct20-2020> <23:14:14>     10      0.00000000      0.00000000      0.0
 <Oct20-2020> <23:14:14>  SCF converged
 <Oct20-2020> <23:14:14>     11      0.00000000      0.00000000      0.0
 <Oct20-2020> <23:14:14>  >>>> POPAN
 <Oct20-2020> <23:14:14>  >>>> DEBYE
 <Oct20-2020> <23:14:14>  NORMAL TERMINATION
 <Oct20-2020> <23:14:14>  END

 *******************************************************************************
 *                                                                             *
 *  -------------------------------------                                      *
 *   Amsterdam Density Functional  (ADF)         2019                          *
 *  -------------------------------------                                      *
 *                                               r79301 2019-11-09             *
 *                                                                             *
 *                                                                             *
 *                            =====================                            *
 *                            |                   |                            *
 *                            |     D I R A C     |                            *
 *                            |                   |                            *
 *                            =====================                            *
 *                                                                             *
 *                                                                             *
 *   Online information and documentation:  https://www.scm.com/support/       *
 *   E-mail:  support@scm.com   info@scm.com                                   *
 *                                                                             *
 *   Scientific publications using ADF results must be properly referenced     *
 *   See the User Manuals (or the web site) for recommended citations          *
 *   The terms and conditions of the End User License Agreement apply to       *
 *   the use of ADF, https://www.scm.com/license-terms/                        *
 *                                                                             *
 **********************  x86_64_linux_intel / intelmpi  ************************
 
 
 
  
 DIRAC 2019  RunTime: Oct20-2020 23:14:14  Nodes: 1  Procs: 1

 Temporary files are created in /scratch/kid_0.764371687 (0x58465342)

1
 TUNGSTEN ATOM 4d CORE RELATIVISTIC, Point Nuc, A and c from 
 N J RN H ZN XION ANUC CLIGHT
 5000   22100.00000000197.36710137 74.00000000  0.00000000  183.950932  0.1370360E+03
  PH   PHI     EPS        DEL        DELRVR
  0.30  0.30     2500.00  0.00001000  0.00001000
 IDIRC  NC1  NDEBU NPRIN  IPUN IRCOR IWCOR
   1   300     0     0     0     0    14
   XALPHA      XLATTER      RNUC
  0.70000000  0.00000000  0.00000000 Point Charge
   XN   XL   XJ      XE          XZ      XDELL
  1.0  0.0  0.5   -2600.000       2.000     0.00000
  2.0  0.0  0.5    -425.000       2.000     0.00000
  2.0  1.0  0.5    -425.000       2.000     0.00000
  2.0  1.0  1.5    -425.000       4.000     0.00000
  3.0  0.0  0.5    -100.000       2.000     0.00000
  3.0  1.0  0.5    -100.000       2.000     0.00000
  3.0  1.0  1.5    -100.000       4.000     0.00000
  3.0  2.0  1.5     -80.000       4.000     0.00000
  3.0  2.0  2.5     -80.000       6.000     0.00000
  4.0  0.0  0.5     -22.000       2.000     0.00000
  4.0  1.0  0.5     -20.000       2.000     0.00000
  4.0  1.0  1.5     -20.000       4.000     0.00000
  4.0  2.0  1.5     -11.000       4.000     0.00000
  4.0  2.0  2.5     -11.000       6.000     0.00000
  4.0  3.0  2.5      -1.000       6.000     0.00000
  4.0  3.0  3.5      -1.000       8.000     0.00000
  5.0  0.0  0.5      -3.000       2.000     0.00000
  5.0  1.0  0.5      -2.200       2.000     0.00000
  5.0  1.0  1.5      -2.200       4.000     0.00000
  5.0  2.0  1.5      -0.500       4.000     0.00000
  5.0  2.0  2.5      -0.500       0.000     0.00000
  6.0  0.0  0.5      -0.200       2.000     0.00000
 ICORP=  0  NPCL=  0  DEMP=0.00  PEPS=0.000000
 R(1)=  0.1000000E-08 D=  0.1005080E+01 RNUC=  0.0000000E+00
 converged at cycle   63  DENSITY AVERAGING    0.1536
  MAXIMUM ERROR IN R.V(R) IS   0.78838062E-05
 Q,EY,EV,EZ,ESUM,ETOT,RHO  0.740000E+02 -0.431420E+03 -0.281568E+05 -0.403919E+05 -0.993885E+04 -0.161643E+05  0.726391E-09


 DIRAC CALCULATION
1                    TUNGSTEN ATOM 4d CORE RELATIVISTIC, Point Nuc, A and c from libtc


 EXCHANGE COEFFICIENT=  0.7000000           TAIL CORRECTION=  0.           NUCLEAR RADIUS=  0.000E+00
0                       ORBITAL    N    L    J     ELECTRONS     EIGENVALUE                DELTA OF EIGENV.

                          1S1/2  1.0  0.0  0.5     2.000       -0.2549514E+04                 0.5980248E-04
                          2S1/2  2.0  0.0  0.5     2.000       -0.4399118E+03                 0.5052420E-04
                          2P1/2  2.0  1.0  0.5     2.000       -0.4208427E+03                 0.5265062E-04
                          2P3/2  2.0  1.0  1.5     4.000       -0.3711192E+03                 0.5139441E-04
                          3S1/2  3.0  0.0  0.5     2.000       -0.1012881E+03                 0.3437035E-04
                          3P1/2  3.0  1.0  0.5     2.000       -0.9277148E+02                 0.3553128E-04
                          3P3/2  3.0  1.0  1.5     4.000       -0.8201733E+02                 0.3404634E-04
                          3D3/2  3.0  2.0  1.5     4.000       -0.6762803E+02                 0.3680712E-04
                          3D5/2  3.0  2.0  2.5     6.000       -0.6528623E+02                 0.3629511E-04
                          4S1/2  4.0  0.0  0.5     2.000       -0.2084139E+02                 0.1939427E-04
                          4P1/2  4.0  1.0  0.5     2.000       -0.1730737E+02                 0.1933978E-04
                          4P3/2  4.0  1.0  1.5     4.000       -0.1480597E+02                 0.1810922E-04
                          4D3/2  4.0  2.0  1.5     4.000       -0.8989319E+01                 0.1779394E-04
                          4D5/2  4.0  2.0  2.5     6.000       -0.8528007E+01                 0.1741170E-04
                          4F5/2  4.0  3.0  2.5     6.000       -0.1237480E+01                 0.1544089E-04
                          4F7/2  4.0  3.0  3.5     8.000       -0.1154634E+01                 0.1522033E-04
                          5S1/2  5.0  0.0  0.5     2.000       -0.2863514E+01                 0.7979521E-05
                          5P1/2  5.0  1.0  0.5     2.000       -0.1813289E+01                 0.7246225E-05
                          5P3/2  5.0  1.0  1.5     4.000       -0.1448762E+01                 0.6602120E-05
                          5D3/2  5.0  2.0  1.5     4.000       -0.1486933E+00                 0.3973088E-05
                          5D5/2  5.0  2.0  2.5     0.000       -0.1223153E+00                 0.3735081E-05
                          6S1/2  6.0  0.0  0.5     2.000       -0.1847434E+00                 0.1808440E-05


                                        NUCLEAR CHARGE=   74.000000
                            INTEGRAL OF CHARGE DENSITY=   74.000000
                           SUM OF THE ORBITAL ENERGIES=  -9938.8529
                                          TOTAL ENERGY= -16164.2530
                                        KINETIC ENERGY=  18217.9700
                             NUCLEAR ATTRACTION ENERGY= -40391.9132
                             ELECTRON REPULSION ENERGY=   6333.2551
                                       EXCHANGE ENERGY=   -323.5649

 *******************************************************************************

                             D I R A C   E X I T
 NORMAL TERMINATION



 =================
 Timing Statistics
 =================
  
 Total Used :                     CPU=        0.68      System=        0.00     Elapsed=        0.69

 Calls  Section                     ( Mean, Percentage )
 ---------------------------------------------------------------------------------------------------
     2  ><      ................      0.00    0.00             0.00    0.00             0.00    0.00
     1  EXIT PROCEDURE .........      0.68  100.00             0.00  100.00             0.69  100.00


 Currently Open Files (EXIT00)
 ====================

 Unit    Access Format  Status   Type       Ident (file)
 -------------------------------------------------------
   3      SEQ    FORM   TRANSP  NORMAL      LOGFILE
                                          ( logfile )
 
Create W   file=TZP-W.4d
XC
  GGA PBE
End
relativistic ZORA
Corepotentials t12.rel
End

 *******************************************************************************
 *                                                                             *
 *  -------------------------------------                                      *
 *   Amsterdam Density Functional  (ADF)         2019                          *
 *  -------------------------------------                                      *
 *                                               r79301 2019-11-09             *
 *                                                                             *
 *                                                                             *
 *                              =================                              *
 *                              |               |                              *
 *                              |     A D F     |                              *
 *                              |               |                              *
 *                              =================                              *
 *                                                                             *
 *                                                                             *
 *   Online information and documentation:  https://www.scm.com/support/       *
 *   E-mail:  support@scm.com   info@scm.com                                   *
 *                                                                             *
 *   Scientific publications using ADF results must be properly referenced     *
 *   See the User Manuals (or the web site) for recommended citations          *
 *   The terms and conditions of the End User License Agreement apply to       *
 *   the use of ADF, https://www.scm.com/license-terms/                        *
 *                                                                             *
 **********************  x86_64_linux_intel / intelmpi  ************************
 
 
 
  
 ADF 2019  RunTime: Oct20-2020 23:14:15  Nodes: 1  Procs: 1

 Temporary files are created in /scratch/kid_0.2036770482 (0x58465342)

 Tungsten (TZP, 4d frozen)



 ===========================
 A T T A C H E D   F I L E S
 ===========================
  
 CREATE - Data File:    TZP-W.4d
                        Tungsten (TZP, 4d frozen)
 Core Potentials:
         file : t12.rel



 ===============================
 M O D E L   P A R A M E T E R S
 ===============================
  
 DENSITY FUNCTIONAL POTENTIAL (scf)
    LDA:                               PW92                                    == Not Default ==
    Gradient Corrections:              PBEc PBEx                               == Not Default ==

 SPIN  (restricted / unrestr.)
    Molecule:                          Restricted                               

 OTHER ASPECTS
    Relativistic Corrections:          scalar (ZORA,MAPA)                      == Not Default ==

    Nuclear Charge Density Model:      Point Charge Nuclei                      
    Core Treatment:                    Frozen Orbital(s)                        

    Hyperfine or Zeeman Interaction:   ---                                      



 =====================================
 S Y M M E T R Y ,   E L E C T R O N S
 =====================================
  
 Symmetry: ATOM

 Irreducible Representations, including subspecies
 -------------------------------------------------
 S
 P:x  P:y  P:z
 D:z2  D:x2-y2  D:xy  D:xz  D:yz
 F:z3  F:z  F:xyz  F:z2x  F:z2y  F:x  F:y


 Configuration of Valence Electrons
 ==================================

          Occupation Numbers
          -------------------------------------------------
 S        2*2
 P        6
 D        4
 F        14
          -------------------------------------------------

 Total:   28

 Net Charge: 0 (Nuclei minus Electrons)

 Preset values for MO occupations will be applied through SCF cycle no. 1000000
 Thereafter, the program will assign electrons to MOs that are spatially
 similar to the occupied MOs in a "reference" cycle ("KeepOrbitals").
 The reference cycle is always the PREVIOUS cycle: it will evolve with
 the SCF procedure.



 ================================
 (Slater-type)  F U N C T I O N S  ***  (Basis and Fit)  ***
 ================================
  

 Atom Type    1  (W)
 ==============

 Valence Basis Sets:  25
 -----------------------
   1 S   52.000000
   2 S   33.250000
   3 S   19.100000
   4 S   11.650000
   2 P   36.850000
   3 P   16.500000
   4 P   11.550000
   3 D   20.100000
   4 D   10.300000
   1 S  163.900000
   5 S    6.050000
   5 S    3.950000
   6 S    2.850000
   6 S    1.800000
   6 S    1.140000
   5 P    5.900000
   5 P    4.000000
   5 P    2.700000
   5 D    4.150000
   5 D    2.250000
   5 D    1.200000
   4 F   13.550000
   4 F    7.050000
   4 F    3.550000
   6 P    1.800000

 Frozen Core Shells
 ------------------
    S:  4
    P:  3
    D:  2


 BAS: List of all Elementary Cartesian Basis Functions
 =====================================================

 The numbering in the list below (to the right of the function characteristics) is referred
 to in print-outs of MO eigenvectors and Mulliken populations in the BAS representation
 (as contrasted to the SFO representation).

 Notes:
 1. The functions are characterized by a polynomial prefactor (powers of x,y,z and r) and
    an exponential decay factor alpha.
 2. Since the basis sets are specific for an atom TYPE, the individual functions occur on
    all atoms of that type.
 3. The word 'Core' in the left margin signals that it is a Core Function (CF) : not a
    degree of freedom in the valence set, but only used to ensure orthogonalization of
    the other valence basis functions on the frozen Core Orbitals.


 (power of) X  Y  Z  R     Alpha  on Atom
            ==========     =====     ==========

 W                                    1
                                  ---------------------------------------------------------------------------
    Core    0  0  0  0    52.000      1
    Core    0  0  0  1    33.250      2
    Core    0  0  0  2    19.100      3
    Core    0  0  0  3    11.650      4
    Core    1  0  0  0    36.850      5
    Core    0  1  0  0    36.850      6
    Core    0  0  1  0    36.850      7
    Core    1  0  0  1    16.500      8
    Core    0  1  0  1    16.500      9
    Core    0  0  1  1    16.500     10
    Core    1  0  0  2    11.550     11
    Core    0  1  0  2    11.550     12
    Core    0  0  1  2    11.550     13
    Core    2  0  0  0    20.100     14
    Core    1  1  0  0    20.100     15
    Core    1  0  1  0    20.100     16
    Core    0  2  0  0    20.100     17
    Core    0  1  1  0    20.100     18
    Core    0  0  2  0    20.100     19
    Core    2  0  0  1    10.300     20
    Core    1  1  0  1    10.300     21
    Core    1  0  1  1    10.300     22
    Core    0  2  0  1    10.300     23
    Core    0  1  1  1    10.300     24
    Core    0  0  2  1    10.300     25
            0  0  0  0   163.900     26
            0  0  0  4     6.050     27
            0  0  0  4     3.950     28
            0  0  0  5     2.850     29
            0  0  0  5     1.800     30
            0  0  0  5     1.140     31
            1  0  0  3     5.900     32
            0  1  0  3     5.900     33
            0  0  1  3     5.900     34
            1  0  0  3     4.000     35
            0  1  0  3     4.000     36
            0  0  1  3     4.000     37
            1  0  0  3     2.700     38
            0  1  0  3     2.700     39
            0  0  1  3     2.700     40
            2  0  0  2     4.150     41
            1  1  0  2     4.150     42
            1  0  1  2     4.150     43
            0  2  0  2     4.150     44
            0  1  1  2     4.150     45
            0  0  2  2     4.150     46
            2  0  0  2     2.250     47
            1  1  0  2     2.250     48
            1  0  1  2     2.250     49
            0  2  0  2     2.250     50
            0  1  1  2     2.250     51
            0  0  2  2     2.250     52
            2  0  0  2     1.200     53
            1  1  0  2     1.200     54
            1  0  1  2     1.200     55
            0  2  0  2     1.200     56
            0  1  1  2     1.200     57
            0  0  2  2     1.200     58
            3  0  0  0    13.550     59
            2  1  0  0    13.550     60
            2  0  1  0    13.550     61
            1  2  0  0    13.550     62
            1  1  1  0    13.550     63
            1  0  2  0    13.550     64
            0  3  0  0    13.550     65
            0  2  1  0    13.550     66
            0  1  2  0    13.550     67
            0  0  3  0    13.550     68
            3  0  0  0     7.050     69
            2  1  0  0     7.050     70
            2  0  1  0     7.050     71
            1  2  0  0     7.050     72
            1  1  1  0     7.050     73
            1  0  2  0     7.050     74
            0  3  0  0     7.050     75
            0  2  1  0     7.050     76
            0  1  2  0     7.050     77
            0  0  3  0     7.050     78
            3  0  0  0     3.550     79
            2  1  0  0     3.550     80
            2  0  1  0     3.550     81
            1  2  0  0     3.550     82
            1  1  1  0     3.550     83
            1  0  2  0     3.550     84
            0  3  0  0     3.550     85
            0  2  1  0     3.550     86
            0  1  2  0     3.550     87
            0  0  3  0     3.550     88
            1  0  0  4     1.800     89
            0  1  0  4     1.800     90
            0  0  1  4     1.800     91

 Total number of charge fitting functions (nprimf)       329
 Total number of Cartesian basis functions (naos)         91
 Total number of Cartesian core functions  (ncos)         25



 BAS: List of all Elementary Cartesian Basis Functions
 =====================================================

 The numbering in the list below (to the right of the function characteristics) is referred
 to in print-outs of MO eigenvectors and Mulliken populations in the BAS representation
 (as contrasted to the SFO representation).

 Notes:
 1. The functions are characterized by a polynomial prefactor (powers of x,y,z and r) and
    an exponential decay factor alpha.
 2. Since the basis sets are specific for an atom TYPE, the individual functions occur on
    all atoms of that type.
 3. The word 'Core' in the left margin signals that it is a Core Function (CF) : not a
    degree of freedom in the valence set, but only used to ensure orthogonalization of
    the other valence basis functions on the frozen Core Orbitals.


 (power of) X  Y  Z  R     Alpha  on Atom
            ==========     =====     ==========

 W                                    1
                                  ---------------------------------------------------------------------------
    Core    0  0  0  0    52.000      1
    Core    0  0  0  1    33.250      2
    Core    0  0  0  2    19.100      3
    Core    0  0  0  3    11.650      4
    Core    1  0  0  0    36.850      5
    Core    0  1  0  0    36.850      6
    Core    0  0  1  0    36.850      7
    Core    1  0  0  1    16.500      8
    Core    0  1  0  1    16.500      9
    Core    0  0  1  1    16.500     10
    Core    1  0  0  2    11.550     11
    Core    0  1  0  2    11.550     12
    Core    0  0  1  2    11.550     13
    Core    2  0  0  0    20.100     14
    Core    1  1  0  0    20.100     15
    Core    1  0  1  0    20.100     16
    Core    0  2  0  0    20.100     17
    Core    0  1  1  0    20.100     18
    Core    0  0  2  0    20.100     19
    Core    2  0  0  1    10.300     20
    Core    1  1  0  1    10.300     21
    Core    1  0  1  1    10.300     22
    Core    0  2  0  1    10.300     23
    Core    0  1  1  1    10.300     24
    Core    0  0  2  1    10.300     25
            0  0  0  0   163.900     26
            0  0  0  4     6.050     27
            0  0  0  4     3.950     28
            0  0  0  5     2.850     29
            0  0  0  5     1.800     30
            0  0  0  5     1.140     31
            1  0  0  3     5.900     32
            0  1  0  3     5.900     33
            0  0  1  3     5.900     34
            1  0  0  3     4.000     35
            0  1  0  3     4.000     36
            0  0  1  3     4.000     37
            1  0  0  3     2.700     38
            0  1  0  3     2.700     39
            0  0  1  3     2.700     40
            2  0  0  2     4.150     41
            1  1  0  2     4.150     42
            1  0  1  2     4.150     43
            0  2  0  2     4.150     44
            0  1  1  2     4.150     45
            0  0  2  2     4.150     46
            2  0  0  2     2.250     47
            1  1  0  2     2.250     48
            1  0  1  2     2.250     49
            0  2  0  2     2.250     50
            0  1  1  2     2.250     51
            0  0  2  2     2.250     52
            2  0  0  2     1.200     53
            1  1  0  2     1.200     54
            1  0  1  2     1.200     55
            0  2  0  2     1.200     56
            0  1  1  2     1.200     57
            0  0  2  2     1.200     58
            3  0  0  0    13.550     59
            2  1  0  0    13.550     60
            2  0  1  0    13.550     61
            1  2  0  0    13.550     62
            1  1  1  0    13.550     63
            1  0  2  0    13.550     64
            0  3  0  0    13.550     65
            0  2  1  0    13.550     66
            0  1  2  0    13.550     67
            0  0  3  0    13.550     68
            3  0  0  0     7.050     69
            2  1  0  0     7.050     70
            2  0  1  0     7.050     71
            1  2  0  0     7.050     72
            1  1  1  0     7.050     73
            1  0  2  0     7.050     74
            0  3  0  0     7.050     75
            0  2  1  0     7.050     76
            0  1  2  0     7.050     77
            0  0  3  0     7.050     78
            3  0  0  0     3.550     79
            2  1  0  0     3.550     80
            2  0  1  0     3.550     81
            1  2  0  0     3.550     82
            1  1  1  0     3.550     83
            1  0  2  0     3.550     84
            0  3  0  0     3.550     85
            0  2  1  0     3.550     86
            0  1  2  0     3.550     87
            0  0  3  0     3.550     88
            1  0  0  4     1.800     89
            0  1  0  4     1.800     90
            0  0  1  4     1.800     91
1
 ***************************************************************************************************



                                              ***********************
                                              *  T E C H N I C A L  *
                                              ***********************
  



 =============================================================
 P A R A L L E L I Z A T I O N  and  V E C T O R I Z A T I O N
 =============================================================
  
 Nr of parallel processes:                                1
 Maximum vector length in NumInt loops:                 128



 =====================
 S C F   U P D A T E S
 =====================
  
 Max. nr. of cycles:                               300
 Convergence criterion:                              0.0000000100
   secondary criterion:                              0.0000000100

 Mix parameter (when DIIS does not apply):           0.2000000000
 Special mix parameter for the first cycle:          1.0000000000
 Mixed ADIIS+SDIIS will be used                  
    Max number of expansion vectors:                10
    Pure ADIIS when Max([F,P]) is above              0.1000000000
    Pure SDIIS when Max([F,P]) is below              0.0010000000
 Automatic ElectronSmearing (in case of problematic SCF convergence) disabled



 =================
 P R E C I S I O N  ***  (General: NumInt, NeglectFunctionTails, ...)  ***
 =================
  

 NumInt:           Target precision:                12.0000000000
 -------           Initial precision:               10.0000000000
                   Min. precision (optimization):   10.0000000000

 Neglect Functions:          Basis functions:        0.1000000000E-13
 ------------------          Fit functions:          0.1000000000E-13



 ===========================
 L I N E A R   S C A L I N G
 ===========================
  

 Cut-off radii density fit:                        0.1000000000E-97
 Overlap cut-off criterion AO matrix elements:     0.1000000000E-97
 Cut-offs for Coulomb potential and fitted density:0.1000000000E-97
 Cut-off criterion for Coulomb multipole terms:    0.1000000000E-97
 Progressive Convergence parameter:                 0.000000000    
1
 ***************************************************************************************************



                                            ***************************
                                            *  C O M P U T A T I O N  *
                                            ***************************
  

 Number of elements of the density matrix on this node (used, total):      4186      4186



 ===========================================
 Numerical Integration : Fuzzy Cells (Becke)
 ===========================================
  
 Becke grid quality: VERYGOOD       
  
 Lebedev angular grid order:             min:  13 max:  41
 Nr. of radial points:                   min: 145 max: 145

 Total nr. of points:        145
 Nr. of blocks:                2
 Block length:                73
 Nr. of dummy points:          1


 Test of Precision of the Numerical Integration Grid
 ===================================================

 Integral of the Total Core Density:                  46.00000002324492
 Relative Error:                                       5.053E-10



 ========================
 Density Fitting (zlmFit)
 ========================
  
 ZlmFit Fit Quality: VERYGOOD       
  
 Max L-expansion:                        min:   0 max:   0
 Nr. of radial interpolation points:     min: 340 max: 340



 =====
 S C F  ***  ScaSCF  ***
 =====
  

 CYCLE    1
 SCF Error: norm([F,P])=      0.000000000000, max([F,P])=      0.000000000000
 orbitals (Q,E):
 ---------------
 S :1...6            ( 2.00   -28.2058)  ( 2.00   -16.4725)  ( 0.00   -10.3738)  ( 0.00    -6.6321)
                     ( 0.00    -4.0998)  ( 0.00  3013.3587)
 P :1...4            ( 6.00   -26.2502)  ( 0.00   -15.6809)  ( 0.00   -10.1451)  ( 0.00    -6.3840)
 D :1...3            ( 4.00   -20.3774)  ( 0.00   -10.3968)  ( 0.00    -5.4917)
 F :1...3            (14.00   -35.0607)  ( 0.00   -19.0417)  ( 0.00   -12.0152)

 CYCLE    2
  SDIIS (wt  0.000):  1.0000  0.0000
 A-DIIS (wt  1.000):  0.1993  0.8007
  DIIS coefficients:  0.1993  0.8007
 SCF Error: norm([F,P])=     40.907082825658, max([F,P])=      9.977402120499
 orbitals (Q,E):
 ---------------
 S :1...3            ( 2.00    -4.6780)  ( 2.00    -1.8638)  ( 0.00    -0.9989)
 P :1...2            ( 6.00    -3.4915)  ( 0.00    -1.5122)
 D :1...2            ( 4.00    -2.0619)  ( 0.00    -1.0071)
 F :1...2            (14.00    -1.8107)  ( 0.00     1.1317)

 CYCLE    3
  SDIIS (wt  0.000):  0.3180  0.6820
 A-DIIS (wt  1.000):  0.2378  0.7622
  DIIS coefficients:  0.2378  0.7622
 SCF Error: norm([F,P])=     22.137766809988, max([F,P])=      7.956550621467
 orbitals (Q,E):
 ---------------
 S :1...3            ( 2.00    -3.1832)  ( 2.00    -0.0954)  ( 0.00     0.0950)
 P :1...2            ( 6.00    -1.7164)  ( 0.00     0.0796)
 D :1...2            ( 4.00    -0.0523)  ( 0.00     0.2166)
 F :1...2            (14.00    -2.9552)  ( 0.00     2.1680)

 CYCLE    4
  SDIIS (wt  0.000): -0.1470  0.2408  0.9063
 A-DIIS (wt  1.000):  0.0000  0.1960  0.8040
  DIIS coefficients:  0.0000  0.1960  0.8040
 SCF Error: norm([F,P])=     11.319258211122, max([F,P])=      3.388378774288
 orbitals (Q,E):
 ---------------
 S :1...3            ( 2.00    -2.5382)  ( 2.00    -0.1744)  ( 0.00     0.0568)
 P :1...2            ( 6.00    -1.3109)  ( 0.00     0.0041)
 D :1...2            ( 4.00    -0.0593)  ( 0.00     0.1840)
 F :1...2            (14.00    -0.4483)  ( 0.00     2.6543)

 CYCLE    5
  SDIIS (wt  0.000): -0.0453 -0.0639  0.4150  0.6941
 A-DIIS (wt  1.000):  0.0000  0.0000  0.2956  0.7044
  DIIS coefficients:  0.0000  0.0000  0.2956  0.7044
 SCF Error: norm([F,P])=      6.468352795626, max([F,P])=      2.222974642389
 orbitals (Q,E):
 ---------------
 S :1...3            ( 2.00    -3.2723)  ( 2.00    -0.3187)  ( 0.00     0.0098)
 P :1...2            ( 6.00    -1.9237)  ( 0.00    -0.1006)
 D :1...2            ( 4.00    -0.3847)  ( 0.00     0.0899)
 F :1...2            (14.00    -1.8198)  ( 0.00     1.9560)

 CYCLE    6
  SDIIS (wt  0.000): -0.0085 -0.0399  0.0839  0.4322  0.5323
 A-DIIS (wt  1.000):  0.0000  0.0000  0.0000  0.2109  0.7891
  DIIS coefficients:  0.0000  0.0000  0.0000  0.2109  0.7891
 SCF Error: norm([F,P])=      2.472496419763, max([F,P])=      0.770355067313
 orbitals (Q,E):
 ---------------
 S :1...3            ( 2.00    -2.6997)  ( 2.00    -0.1670)  ( 0.00     0.0637)
 P :1...2            ( 6.00    -1.4226)  ( 0.00     0.0144)
 D :1...2            ( 4.00    -0.0756)  ( 0.00     0.1818)
 F :1...2            (14.00    -0.9561)  ( 0.00     2.4590)

 CYCLE    7
  SDIIS (wt  0.000): -0.0027  0.0194 -0.0224 -0.1264  0.3712  0.7611
 A-DIIS (wt  1.000):  0.0000  0.0000  0.0000  0.0000  0.2987  0.7013
  DIIS coefficients:  0.0000  0.0000  0.0000  0.0000  0.2987  0.7013
 SCF Error: norm([F,P])=      1.326888571519, max([F,P])=      0.409877416513
 orbitals (Q,E):
 ---------------
 S :1...3            ( 2.00    -2.9765)  ( 2.00    -0.2356)  ( 0.00     0.0368)
 P :1...2            ( 6.00    -1.6652)  ( 0.00    -0.0389)
 D :1...2            ( 4.00    -0.2166)  ( 0.00     0.1330)
 F :1...2            (14.00    -1.3505)  ( 0.00     2.2150)

 CYCLE    8
  SDIIS (wt  0.000): -0.0001 -0.0032  0.0101  0.0022 -0.1365  0.1637  0.9637
 A-DIIS (wt  1.000):  0.0000  0.0000  0.0000  0.0000  0.0000  0.1133  0.8867
  DIIS coefficients:  0.0000  0.0000  0.0000  0.0000  0.0000  0.1133  0.8867
 SCF Error: norm([F,P])=      0.417265552811, max([F,P])=      0.123103983384
 orbitals (Q,E):
 ---------------
 S :1...3            ( 2.00    -2.8269)  ( 2.00    -0.1934)  ( 0.00     0.0514)
 P :1...2            ( 6.00    -1.5319)  ( 0.00    -0.0062)
 D :1...2            ( 4.00    -0.1328)  ( 0.00     0.1598)
 F :1...2            (14.00    -1.1429)  ( 0.00     2.3483)

 CYCLE    9
  SDIIS (wt  0.000): -0.0000 -0.0005  0.0032 -0.0055 -0.0134 -0.0769  0.3889  0.7044
 A-DIIS (wt  1.000):  0.0000  0.0000  0.0000  0.0000  0.0000  0.0000  0.4605  0.5395
  DIIS coefficients:  0.0000  0.0000  0.0000  0.0000  0.0000  0.0000  0.4605  0.5395
 SCF Error: norm([F,P])=      0.436344656895, max([F,P])=      0.135977974745
 orbitals (Q,E):
 ---------------
 S :1...3            ( 2.00    -2.8921)  ( 2.00    -0.2089)  ( 0.00     0.0455)
 P :1...2            ( 6.00    -1.5884)  ( 0.00    -0.0182)
 D :1...2            ( 4.00    -0.1653)  ( 0.00     0.1491)
 F :1...2            (14.00    -1.2444)  ( 0.00     2.2903)

 CYCLE   10
  SDIIS (wt  0.791): -0.0000 -0.0000 -0.0008  0.0050  0.0002 -0.0572  0.0662  0.2518  0.7349
 A-DIIS (wt  0.209):  0.0000  0.0000  0.0000  0.0000  0.0000  0.0000  0.0000  0.0000  1.0000
  DIIS coefficients: -0.0000 -0.0000 -0.0006  0.0039  0.0002 -0.0453  0.0524  0.1992  0.7903
 SCF Error: norm([F,P])=      0.064290018174, max([F,P])=      0.021683563602
 orbitals (Q,E):
 ---------------
 S :1...3            ( 2.00    -2.8892)  ( 2.00    -0.2088)  ( 0.00     0.0453)
 P :1...2            ( 6.00    -1.5864)  ( 0.00    -0.0182)
 D :1...2            ( 4.00    -0.1648)  ( 0.00     0.1492)
 F :1...2            (14.00    -1.2344)  ( 0.00     2.2932)

 CYCLE   11
  SDIIS (wt  0.943):  0.0000  0.0000  0.0003 -0.0019 -0.0002  0.0169 -0.0071 -0.0713  1.0633
 A-DIIS (wt  0.057):  0.0000  0.0000  0.0000  0.0000  0.0000  0.0000  0.0000  0.0000  1.0000
  DIIS coefficients:  0.0000  0.0000  0.0003 -0.0018 -0.0002  0.0159 -0.0067 -0.0673  1.0597
 SCF Error: norm([F,P])=      0.019862243149, max([F,P])=      0.006614525832
 orbitals (Q,E):
 ---------------
 S :1...3            ( 2.00    -2.8906)  ( 2.00    -0.2091)  ( 0.00     0.0452)
 P :1...2            ( 6.00    -1.5875)  ( 0.00    -0.0184)
 D :1...2            ( 4.00    -0.1654)  ( 0.00     0.1490)
 F :1...2            (14.00    -1.2376)  ( 0.00     2.2919)

 CYCLE   12
  SDIIS (wt  1.000):  0.0000 -0.0000  0.0001  0.0002 -0.0010 -0.0025  0.0027  1.0005
  DIIS coefficients:  0.0000 -0.0000  0.0001  0.0002 -0.0010 -0.0025  0.0027  1.0005
 SCF Error: norm([F,P])=      0.001704368638, max([F,P])=      0.000557703294
 orbitals (Q,E):
 ---------------
 S :1...3            ( 2.00    -2.8904)  ( 2.00    -0.2090)  ( 0.00     0.0452)
 P :1...2            ( 6.00    -1.5874)  ( 0.00    -0.0184)
 D :1...2            ( 4.00    -0.1653)  ( 0.00     0.1490)
 F :1...2            (14.00    -1.2373)  ( 0.00     2.2920)

 CYCLE   13
  SDIIS (wt  1.000): -0.0000 -0.0000 -0.0000 -0.0001  0.0001 -0.0012  0.0054  0.1443  0.8513
  DIIS coefficients: -0.0000 -0.0000 -0.0000 -0.0001  0.0001 -0.0012  0.0054  0.1443  0.8513
 SCF Error: norm([F,P])=      0.000011644128, max([F,P])=      0.000003087302
 orbitals (Q,E):
 ---------------
 S :1...3            ( 2.00    -2.8904)  ( 2.00    -0.2090)  ( 0.00     0.0452)
 P :1...2            ( 6.00    -1.5874)  ( 0.00    -0.0184)
 D :1...2            ( 4.00    -0.1653)  ( 0.00     0.1490)
 F :1...2            (14.00    -1.2373)  ( 0.00     2.2920)

 CYCLE   14
  SDIIS (wt  1.000): -0.0000 -0.0001 -0.0006 -0.0016  1.0022
  DIIS coefficients: -0.0000 -0.0001 -0.0006 -0.0016  1.0022
 SCF Error: norm([F,P])=      0.000000013756, max([F,P])=      0.000000003650
 orbitals (Q,E):
 ---------------
 S :1...3            ( 2.00    -2.8904)  ( 2.00    -0.2090)  ( 0.00     0.0452)
 P :1...2            ( 6.00    -1.5874)  ( 0.00    -0.0184)
 D :1...2            ( 4.00    -0.1653)  ( 0.00     0.1490)
 F :1...2            (14.00    -1.2373)  ( 0.00     2.2920)

 SCF CONVERGED

 CYCLE   15
1
 ***************************************************************************************************



                                                *******************
                                                *  R E S U L T S  *
                                                *******************
  
 *** Using FIT density in Focky
  SDIIS (wt  1.000): -0.0000 -0.0000 -0.0330  1.0330
  DIIS coefficients: -0.0000 -0.0000 -0.0330  1.0330
 SCF Error: norm([F,P])=      0.000000001904, max([F,P])=      0.000000000603

 Scaled ZORA Orbital Energies, per Irrep and Spin:
 =================================================
                        Occup              E (au)              E (eV)       Diff (eV) with prev. cycle
                        -----      --------------------        ------       --------------------------
 S
               1        2.000     -0.28904146058127E+01       -78.652               1.69E-08
               2        2.000     -0.20903700188629E+00        -5.688               1.07E-08
               3        0.000      0.45235059600390E-01         1.231
               4        0.000      0.56065479131102E+00        15.256
               5        0.000      0.33274541694695E+01        90.545
               6        0.000      0.30455860934223E+04     82874.614
 P
               1        6.000     -0.15873724268739E+01       -43.195               1.66E-08
               2        0.000     -0.18381804002204E-01        -0.500
               3        0.000      0.75931517673518E+00        20.662
               4        0.000      0.46642512103918E+01       126.921
 D
               1        4.000     -0.16528259673378E+00        -4.498               1.44E-08
               2        0.000      0.14901440684398E+00         4.055
               3        0.000      0.12244232958062E+01        33.318
 F
               1       14.000     -0.12372769632872E+01       -33.668               2.06E-08
               2        0.000      0.22920435821192E+01        62.370
               3        0.000      0.17401159156906E+02       473.510


 Partially Occupied:
               1 D                -0.16528259673378E+00
  
 HOMO :        2 S                -0.20903700188629E+00
 LUMO :        2 P                -0.18381804002204E-01
  


 Orbital Energies, all Irreps
 ========================================

 Irrep        no.  (spin)   Occup              E (au)                E (eV)
 ---------------------------------------------------------------------------
 S             1             2.00       -0.28904146058127E+01       -78.6522
 P             1             6.00       -0.15873724268739E+01       -43.1946
 F             1            14.00       -0.12372769632872E+01       -33.6680
 S             2             2.00       -0.20903700188629E+00        -5.6882
 D             1             4.00       -0.16528259673378E+00        -4.4976
 P             2             0.00       -0.18381804002204E-01        -0.5002
 S             3             0.00        0.45235059600390E-01         1.2309
 D             2             0.00        0.14901440684398E+00         4.0549
 S             4             0.00        0.56065479131102E+00        15.2562
 P             3             0.00        0.75931517673518E+00        20.6620
 D             3             0.00        0.12244232958062E+01        33.3183
 F             2             0.00        0.22920435821192E+01        62.3697
 S             5             0.00        0.33274541694695E+01        90.5446
 P             4             0.00        0.46642512103918E+01       126.9207
 F             3             0.00        0.17401159156906E+02       473.5096
 S             6             0.00        0.30455860934223E+04     82874.6143


 Scaled ZORA Orbital Energies of the Core Orbitals:
 ==================================================

 (Note that the atoms are grouped by atomtype, see the labels, and may hence NOT be in input order)

 AtomType  Orbital  Atom                   E (au)                        E (eV)
 --------  -------  ----           --------------------        ----------------
 W           1S        1          -0.25482138824004E+04              -69340.428
             2S        1          -0.43960984780021E+03              -11962.393
             3S        1          -0.10127263228126E+03               -2755.769
             4S        1          -0.20907119428712E+02                -568.912
             2P        1          -0.38417169137868E+03              -10453.844
             3P        1          -0.84864891065853E+02               -2309.291
             4P        1          -0.15541477299623E+02                -422.905
             3D        1          -0.66165082684733E+02               -1800.444
             4D        1          -0.87737511763508E+01                -238.746



 =======================================
 M U L L I K E N   P O P U L A T I O N S
 =======================================
  
 The survey below gives for each atom:
 a) the total charge (Z minus electrons)
 b) the net spin polarization (nr of electrons spin-A minus spin-B)
 c) for each spin the atomic electron valence density (integrated) per L-value.

 Atom              Charge    Spin density          S         P         D         F
 ----              ------    ------------       ------    ------    ------    ------
 1 W              -0.0000                       4.0000    6.0000    4.0000   14.0000

 Populations of individual BAS functions
 ----------------------------------------
 1 W           -0.0024 -0.0016  0.0017  0.0821  0.0004  0.0004  0.0004 -0.0190 -0.0190 -0.0190
                0.1070  0.1070  0.1070  0.0007  0.0011  0.0011  0.0007  0.0011  0.0007  0.0102
                0.0153  0.0153  0.0102  0.0153  0.0102  0.0002  1.3184  0.6637  0.7095  1.0512
                0.1771  0.5899  0.5899  0.5899  1.2256  1.2256  1.2256  0.0879  0.0879  0.0879
                0.2040  0.3059  0.3059  0.2040  0.3059  0.2040  0.2699  0.4048  0.4048  0.2699
                0.4048  0.2699  0.0486  0.0728  0.0728  0.0486  0.0728  0.0486  0.2159  0.4319
                0.4319  0.4319  0.5399  0.4319  0.2159  0.4319  0.4319  0.2159  0.4698  0.9397
                0.9397  0.9397  1.1746  0.9397  0.4698  0.9397  0.9397  0.4698  0.1142  0.2284
                0.2284  0.2284  0.2855  0.2284  0.1142  0.2284  0.2284  0.1142  0.0081  0.0081
                0.0081

 Gross Charges per Atom (Z minus electrons)
 ==========================================
            -0.0000
 Net Total: -0.00000000



 =======================================================================
 Electrostatic potential at the Nuclei due to electrons and other nuclei
 =======================================================================
  
         Atom                  Potential
         ----                  ---------
     1)   W                 545.46052106
 
 
 ========================
 No memory problems found
 ========================
 
 Maximum number of active allocate calls:         487
 
 *******************************************************************************

                             A D F   E X I T
 NORMAL TERMINATION



 =================
 Timing Statistics
 =================
  
 Total Used :                     CPU=        1.20      System=        0.04     Elapsed=        1.29

 Calls  Section                     ( Mean, Percentage )
 ---------------------------------------------------------------------------------------------------
     3  ><      ................      0.00    0.00             0.00    9.09             0.00    0.35
     1  INIT    ................      0.06    5.35             0.01   18.18             0.08    6.06
     1  GEOMET  ................      0.01    0.67             0.01   18.18             0.02    1.86
     1  INPUTA  ................      0.00    0.33             0.00    0.00             0.00    0.29
     1  MAINSY  ................      0.02    1.34             0.00    0.00             0.02    1.63
     1  SYMFIT  ................      0.00    0.00             0.00    9.09             0.00    0.13
     1  CORORT  ................      0.00    0.00             0.00    0.00             0.00    0.15
     1  SYMORB  ................      0.00    0.00             0.00    0.00             0.00    0.08
     1  CLSMAT  ................      0.01    0.67             0.00    0.00             0.01    0.53
     1  ORTHON  ................      0.00    0.33             0.00    0.00             0.01    0.47
     1  GENPT   ................      0.02    2.01             0.00    9.09             0.03    2.03
     1  PTBAS   ................      0.00    0.33             0.00    0.00             0.01    0.57
    15  FOCKY   ................      0.06   77.93             0.00   27.27             0.06   74.69
    15  FOCKTR  ................      0.00    0.67             0.00    0.00             0.00    1.01
    15  SDIIS   ................      0.00    3.34             0.00    9.09             0.00    3.40
     1  COREPS  ................      0.06    5.02             0.00    0.00             0.06    4.74
     1  POPAN   ................      0.00    0.33             0.00    0.00             0.01    0.51
     1  DEBYE   ................      0.00    0.33             0.00    0.00             0.00    0.19
     1  EXIT PROCEDURE .........      0.02    1.34             0.00    0.00             0.02    1.31


 Currently Open Files (EXIT00)
 ====================

 Unit    Access Format  Status   Type       Ident (file)
 -------------------------------------------------------
   3      SEQ    FORM   TRANSP  NORMAL      LOGFILE
                                          ( logfile )

 ***************************************************************************************************
 (LOGFILE)
 <Oct20-2020> <23:14:14>  DIRAC 2019  RunTime: Oct20-2020 23:14:14  Nodes: 1  Procs: 1
 <Oct20-2020> <23:14:14>  NORMAL TERMINATION
 <Oct20-2020> <23:14:14>  END
 <Oct20-2020> <23:14:14>  ADF 2019  RunTime: Oct20-2020 23:14:14  Nodes: 1  Procs: 1
 <Oct20-2020> <23:14:14>  Oxygen (TZP, 1s frozen)
 <Oct20-2020> <23:14:14>  RunType   : CREATE
 <Oct20-2020> <23:14:14>  Net Charge: 0 (Nuclei minus Electrons)
 <Oct20-2020> <23:14:14>  Symmetry  : ATOM
  Coordinates
    Atom         X           Y           Z   (Angstrom)
    1.O         0.000000    0.000000    0.000000
 <Oct20-2020> <23:14:14>  >>>> CORORT
 <Oct20-2020> <23:14:14>  >>>> CLSMAT
 <Oct20-2020> <23:14:14>  >>>> ORTHON
 <Oct20-2020> <23:14:14>  >>>> GENPT
 <Oct20-2020> <23:14:14>  Block Length=  68
 <Oct20-2020> <23:14:14>  >>>> PTBAS
 <Oct20-2020> <23:14:14>  >>>> CYCLE
 <Oct20-2020> <23:14:14>              |Error|         MaxErr       Wt(A-DIIS)
 <Oct20-2020> <23:14:14>      1      0.00000000      0.00000000
 <Oct20-2020> <23:14:14>      2      4.56299337      2.52897111
 <Oct20-2020> <23:14:14>      3      2.72315525      1.79866705    100.0
 <Oct20-2020> <23:14:14>      4      0.28902714      0.13064862    100.0
 <Oct20-2020> <23:14:14>      5      0.41661509      0.23264367    100.0
 <Oct20-2020> <23:14:14>      6      0.01372327      0.00671904      5.8
 <Oct20-2020> <23:14:14>      7      0.00110365      0.00063404      0.0
 <Oct20-2020> <23:14:14>      8      0.00003592      0.00002026      0.0
 <Oct20-2020> <23:14:14>      9      0.00000033      0.00000018      0.0
 <Oct20-2020> <23:14:14>     10      0.00000000      0.00000000      0.0
 <Oct20-2020> <23:14:14>  SCF converged
 <Oct20-2020> <23:14:14>     11      0.00000000      0.00000000      0.0
 <Oct20-2020> <23:14:14>  >>>> POPAN
 <Oct20-2020> <23:14:14>  >>>> DEBYE
 <Oct20-2020> <23:14:14>  NORMAL TERMINATION
 <Oct20-2020> <23:14:14>  END
 <Oct20-2020> <23:14:14>  DIRAC 2019  RunTime: Oct20-2020 23:14:14  Nodes: 1  Procs: 1
 <Oct20-2020> <23:14:15>  NORMAL TERMINATION
 <Oct20-2020> <23:14:15>  END
 <Oct20-2020> <23:14:15>  ADF 2019  RunTime: Oct20-2020 23:14:15  Nodes: 1  Procs: 1
 <Oct20-2020> <23:14:15>  Tungsten (TZP, 4d frozen)
 <Oct20-2020> <23:14:15>  RunType   : CREATE
 <Oct20-2020> <23:14:15>  Net Charge: 0 (Nuclei minus Electrons)
 <Oct20-2020> <23:14:15>  Symmetry  : ATOM
  Coordinates
    Atom         X           Y           Z   (Angstrom)
    1.W         0.000000    0.000000    0.000000
 <Oct20-2020> <23:14:15>  >>>> CORORT
 <Oct20-2020> <23:14:15>  >>>> CLSMAT
 <Oct20-2020> <23:14:15>  >>>> ORTHON
 <Oct20-2020> <23:14:15>  >>>> GENPT
 <Oct20-2020> <23:14:15>  Block Length=  73
 <Oct20-2020> <23:14:15>  >>>> PTBAS
 <Oct20-2020> <23:14:15>  >>>> CYCLE
 <Oct20-2020> <23:14:16>              |Error|         MaxErr       Wt(A-DIIS)
 <Oct20-2020> <23:14:16>      1      0.00000000      0.00000000
 <Oct20-2020> <23:14:16>      2     40.90708283      9.97740212    100.0
 <Oct20-2020> <23:14:16>      3     22.13776681      7.95655062    100.0
 <Oct20-2020> <23:14:16>      4     11.31925821      3.38837877    100.0
 <Oct20-2020> <23:14:16>      5      6.46835280      2.22297464    100.0
 <Oct20-2020> <23:14:16>      6      2.47249642      0.77035507    100.0
 <Oct20-2020> <23:14:16>      7      1.32688857      0.40987742    100.0
 <Oct20-2020> <23:14:16>      8      0.41726555      0.12310398    100.0
 <Oct20-2020> <23:14:16>      9      0.43634466      0.13597797    100.0
 <Oct20-2020> <23:14:16>     10      0.06429002      0.02168356     20.9
 <Oct20-2020> <23:14:16>     11      0.01986224      0.00661453      5.7
 <Oct20-2020> <23:14:16>     12      0.00170437      0.00055770      0.0
 <Oct20-2020> <23:14:16>     13      0.00001164      0.00000309      0.0
 <Oct20-2020> <23:14:16>     14      0.00000001      0.00000000      0.0
 <Oct20-2020> <23:14:16>  SCF converged
 <Oct20-2020> <23:14:16>     15      0.00000000      0.00000000      0.0
 <Oct20-2020> <23:14:16>  >>>> POPAN
 <Oct20-2020> <23:14:16>  >>>> DEBYE
 <Oct20-2020> <23:14:16>  NORMAL TERMINATION
 <Oct20-2020> <23:14:16>  END


 Parallel Execution: Process Information
 ==============================================================================
 Rank   Node Name                              NodeID   MyNodeRank  NodeMaster
 ==============================================================================


May use up to 61376MB of RAM as shared memory on node 0
 
AnalyticalFreq
end

NumericalQuality Good

QTAIM
    Enabled Yes
End

Relativistic Scalar ZORA

SOLVATION
  Surf Delley
  Solv name=Water cav0=0.0 cav1=0.0067639
  Charged method=CONJ
  C-Mat POT
  SCF VAR ALL
  CSMRSP
  Radii
    H=1.30
    O=1.72
    W=1.992
  SubEnd
end

ScanFreq -1000 0

XC
  GGA PBE
end

atoms
      1         W     13.766471     10.498728      2.247001
      2         O     13.313209     12.398972      2.054068
      3         W     11.632631     11.268461      4.859296
      4         W      9.603682     10.578148      2.334230
      5         O     11.846748     12.932311      4.140463
      6         O     13.467259     10.005383      0.569474
      7         O      9.719442      9.828293      0.710218
      8         O      9.730517     12.318562      1.929553
      9         O     13.623397     11.004213      4.433632
     10         O     15.533012     10.696120      2.228739
     11         O     11.732871     10.339471      2.770675
[...]
    6.O        13.402382    9.064778    1.794950
    7.O        10.068227   10.389685    0.511359
    8.O         8.709728   12.422483    1.854755
    9.O        13.481573   11.297713    4.114494
   10.O        15.593179   10.687897    2.438124
   11.O        11.523533   10.995369    2.754834
   12.O        11.664899   10.456705    6.111153
   13.O         9.787225   11.590760    4.331123
   14.O         8.556006    9.613425    2.723294
 <Oct20-2020> <23:29:51>  >>>> CORORT
 <Oct20-2020> <23:29:51>  >>>> CLSMAT
 <Oct20-2020> <23:29:51>  >>>> ORTHON
 <Oct20-2020> <23:29:52>  >>>> GENPT
 <Oct20-2020> <23:29:52>  Block Length= 128
 <Oct20-2020> <23:29:52>  >>>> PTBAS
 <Oct20-2020> <23:29:52>  combining surface points...
 <Oct20-2020> <23:29:52>  combining surface points...
 <Oct20-2020> <23:29:52>  >>>> CYCLE
 <Oct20-2020> <23:29:54>              |Error|         MaxErr       Wt(A-DIIS)
 <Oct20-2020> <23:29:54>      1      0.15861162      0.03979149
 <Oct20-2020> <23:29:55>      2      0.25313274      0.03057306    100.0
 <Oct20-2020> <23:29:56>      3      0.09334109      0.01448249    100.0
 <Oct20-2020> <23:29:57>      4      0.14821498      0.01935488    100.0
 <Oct20-2020> <23:29:58>      5      0.20188664      0.02804289    100.0
 <Oct20-2020> <23:29:59>      6      0.03859349      0.00532402      4.4
 <Oct20-2020> <23:30:00>      7      0.03520537      0.00494262      4.0
 <Oct20-2020> <23:30:01>      8      0.01346775      0.00184053      0.8
 <Oct20-2020> <23:30:02>      9      0.00260442      0.00030929      0.0
 <Oct20-2020> <23:30:03>     10      0.00258422      0.00040860      0.0
 <Oct20-2020> <23:30:04>     11      0.00087303      0.00017005      0.0
 <Oct20-2020> <23:30:05>     12      0.00042416      0.00005951      0.0
 <Oct20-2020> <23:30:06>     13      0.00013806      0.00002932      0.0
 <Oct20-2020> <23:30:07>     14      0.00003075      0.00000651      0.0
 <Oct20-2020> <23:30:08>     15      0.00000985      0.00000137      0.0
 <Oct20-2020> <23:30:08>     16      0.00000767      0.00000120      0.0
 <Oct20-2020> <23:30:09>     17      0.00000126      0.00000018      0.0
 <Oct20-2020> <23:30:09>  SCF converged
 <Oct20-2020> <23:30:10>     18      0.00000073      0.00000011      0.0
 <Oct20-2020> <23:30:10>  >>>> TOTEN
 <Oct20-2020> <23:30:12>  >>>> POPAN
 <Oct20-2020> <23:30:12>  >>>> DEBYE
 <Oct20-2020> <23:30:12>  >>>> ENGRAD
 <Oct20-2020> <23:30:14>  current energy                               -4.87432671 Hartree
 <Oct20-2020> <23:30:14>  energy change                      -0.00000229     0.00100000    T
 <Oct20-2020> <23:30:14>  constrained gradient max            0.00157873     0.00100000    F
 <Oct20-2020> <23:30:14>  constrained gradient rms            0.00043516     0.00066667    T
 <Oct20-2020> <23:30:14>  gradient max                        0.00157873
 <Oct20-2020> <23:30:14>  gradient rms                        0.00043516
 <Oct20-2020> <23:30:14>  cart. step max                      0.02380641     0.01000000    F
 <Oct20-2020> <23:30:14>  cart. step rms                      0.00805876     0.00666667    F
  Coordinates in Geometry Cycle 44
    Atom         X           Y           Z   (Angstrom)
    1.W        13.811243   10.732447    2.281259
    2.O        13.546919   11.870959    0.932704
    3.W        11.594358   11.584258    4.733286
    4.W         9.636006   10.926774    2.157590
    5.O        11.836525   13.238967    5.342769
    6.O        13.396525    9.060065    1.818756
    7.O        10.071142   10.398169    0.511447
    8.O         8.701535   12.421594    1.858605
    9.O        13.483345   11.314766    4.111347
   10.O        15.591809   10.684260    2.438163
   11.O        11.526574   11.013478    2.750289
   12.O        11.670223   10.445204    6.097786
   13.O         9.786879   11.585443    4.330078
   14.O         8.564177    9.611121    2.720355
 <Oct20-2020> <23:30:14>  >>>> CORORT
 <Oct20-2020> <23:30:14>  >>>> CLSMAT
 <Oct20-2020> <23:30:14>  >>>> ORTHON
 <Oct20-2020> <23:30:14>  >>>> GENPT
 <Oct20-2020> <23:30:14>  Block Length= 128
 <Oct20-2020> <23:30:14>  >>>> PTBAS
 <Oct20-2020> <23:30:15>  combining surface points...
 <Oct20-2020> <23:30:15>  combining surface points...
 <Oct20-2020> <23:30:15>  combining surface points...
 <Oct20-2020> <23:30:15>  >>>> CYCLE
 <Oct20-2020> <23:30:17>              |Error|         MaxErr       Wt(A-DIIS)
 <Oct20-2020> <23:30:17>      1      0.87356079      0.37125791
 <Oct20-2020> <23:30:18>      2      0.25087026      0.03030565    100.0
 <Oct20-2020> <23:30:19>      3      0.09212277      0.01399311    100.0
 <Oct20-2020> <23:30:20>      4      0.13733960      0.01791715    100.0
 <Oct20-2020> <23:30:21>      5      0.23683716      0.03274494    100.0
 <Oct20-2020> <23:30:22>      6      0.04101587      0.00640411      5.5
 <Oct20-2020> <23:30:23>      7      0.03441365      0.00501658      4.1
 <Oct20-2020> <23:30:23>      8      0.01387940      0.00214778      1.2
 <Oct20-2020> <23:30:24>      9      0.00264885      0.00031252      0.0
 <Oct20-2020> <23:30:25>     10      0.00242669      0.00036692      0.0
 <Oct20-2020> <23:30:26>     11      0.00085911      0.00016939      0.0
 <Oct20-2020> <23:30:27>     12      0.00042560      0.00005286      0.0
 <Oct20-2020> <23:30:28>     13      0.00014656      0.00003014      0.0
 <Oct20-2020> <23:30:29>     14      0.00002871      0.00000607      0.0
 <Oct20-2020> <23:30:30>     15      0.00000767      0.00000079      0.0
 <Oct20-2020> <23:30:30>  SCF converged
 <Oct20-2020> <23:30:31>     16      0.00000664      0.00000127      0.0
 <Oct20-2020> <23:30:31>  >>>> TOTEN
 <Oct20-2020> <23:30:32>  >>>> POPAN
 <Oct20-2020> <23:30:32>  >>>> DEBYE
 <Oct20-2020> <23:30:32>  >>>> ENGRAD
 <Oct20-2020> <23:30:34>  current energy                               -4.87427165 Hartree
 <Oct20-2020> <23:30:34>  energy change                       0.00005506     0.00100000    T
 <Oct20-2020> <23:30:34>  constrained gradient max            0.00215123     0.00100000    F
 <Oct20-2020> <23:30:34>  constrained gradient rms            0.00054795     0.00066667    T
 <Oct20-2020> <23:30:34>  gradient max                        0.00215123
 <Oct20-2020> <23:30:34>  gradient rms                        0.00054795
 <Oct20-2020> <23:30:34>  cart. step max                      0.01443667     0.01000000    F
 <Oct20-2020> <23:30:34>  cart. step rms                      0.00555475     0.00666667    T
  Coordinates in Geometry Cycle 45
    Atom         X           Y           Z   (Angstrom)
    1.W        13.813091   10.732575    2.280632
    2.O        13.548105   11.883321    0.942856
    3.W        11.594184   11.582471    4.733310
    4.W         9.634187   10.923868    2.158533
    5.O        11.837836   13.241741    5.329098
    6.O        13.398128    9.063662    1.805762
    7.O        10.069451   10.392847    0.513300
    8.O         8.709424   12.424548    1.857339
    9.O        13.483120   11.306166    4.112535
   10.O        15.593358   10.687288    2.440829
   11.O        11.524837   10.999041    2.752825
   12.O        11.670502   10.451757    6.104518
   13.O         9.787093   11.583056    4.330644
   14.O         8.553942    9.615162    2.722253
 <Oct20-2020> <23:30:34>  >>>> CORORT
 <Oct20-2020> <23:30:35>  >>>> CLSMAT
 <Oct20-2020> <23:30:35>  >>>> ORTHON
 <Oct20-2020> <23:30:35>  >>>> GENPT
 <Oct20-2020> <23:30:35>  Block Length= 128
 <Oct20-2020> <23:30:35>  >>>> PTBAS
 <Oct20-2020> <23:30:35>  combining surface points...
 <Oct20-2020> <23:30:35>  combining surface points...
 <Oct20-2020> <23:30:35>  combining surface points...
 <Oct20-2020> <23:30:35>  >>>> CYCLE
 <Oct20-2020> <23:30:37>              |Error|         MaxErr       Wt(A-DIIS)
 <Oct20-2020> <23:30:37>      1      0.59907900      0.22162709
 <Oct20-2020> <23:30:38>      2      0.25317186      0.03047033    100.0
 <Oct20-2020> <23:30:39>      3      0.09519034      0.01524763    100.0
 <Oct20-2020> <23:30:40>      4      0.15994479      0.02170202    100.0
 <Oct20-2020> <23:30:41>      5      0.17937284      0.02475957    100.0
 <Oct20-2020> <23:30:42>      6      0.04165979      0.00617846      5.2
 <Oct20-2020> <23:30:43>      7      0.03485053      0.00500173      4.0
 <Oct20-2020> <23:30:44>      8      0.01288501      0.00185445      0.9
 <Oct20-2020> <23:30:45>      9      0.00260116      0.00030631      0.0
 <Oct20-2020> <23:30:46>     10      0.00246857      0.00039215      0.0
 <Oct20-2020> <23:30:47>     11      0.00082405      0.00016501      0.0
 <Oct20-2020> <23:30:48>     12      0.00042061      0.00005670      0.0
 <Oct20-2020> <23:30:49>     13      0.00014227      0.00003037      0.0
 <Oct20-2020> <23:30:50>     14      0.00002788      0.00000542      0.0
 <Oct20-2020> <23:30:51>     15      0.00000878      0.00000122      0.0
 <Oct20-2020> <23:30:51>     16      0.00000709      0.00000124      0.0
 <Oct20-2020> <23:30:52>     17      0.00000162      0.00000020      0.0
 <Oct20-2020> <23:30:53>  SCF converged
 <Oct20-2020> <23:30:53>     18      0.00000070      0.00000012      0.0
 <Oct20-2020> <23:30:54>  >>>> TOTEN
 <Oct20-2020> <23:30:55>  >>>> POPAN
 <Oct20-2020> <23:30:55>  >>>> DEBYE
 <Oct20-2020> <23:30:55>  >>>> ENGRAD
 <Oct20-2020> <23:30:57>  current energy                               -4.87429787 Hartree
 <Oct20-2020> <23:30:57>  energy change                      -0.00002622     0.00100000    T
 <Oct20-2020> <23:30:57>  constrained gradient max            0.00077338     0.00100000    T
 <Oct20-2020> <23:30:57>  constrained gradient rms            0.00026610     0.00066667    T
 <Oct20-2020> <23:30:57>  gradient max                        0.00077338
 <Oct20-2020> <23:30:57>  gradient rms                        0.00026610
 <Oct20-2020> <23:30:57>  cart. step max                      0.00318719     0.01000000    T
 <Oct20-2020> <23:30:57>  cart. step rms                      0.00133583     0.00666667    T
 <Oct20-2020> <23:30:57>  GEOMETRY CONVERGED
 <Oct20-2020> <23:30:57>  Calculating Energy Terms for Final Geometry
  Coordinates in Geometry Cycle 45
    Atom         X           Y           Z   (Angstrom)
    1.W        13.813091   10.732575    2.280632
    2.O        13.548105   11.883321    0.942856
    3.W        11.594184   11.582471    4.733310
    4.W         9.634187   10.923868    2.158533
    5.O        11.837836   13.241741    5.329098
    6.O        13.398128    9.063662    1.805762
    7.O        10.069451   10.392847    0.513300
    8.O         8.709424   12.424548    1.857339
    9.O        13.483120   11.306166    4.112535
   10.O        15.593358   10.687288    2.440829
   11.O        11.524837   10.999041    2.752825
   12.O        11.670502   10.451757    6.104518
   13.O         9.787093   11.583056    4.330644
   14.O         8.553942    9.615162    2.722253
 <Oct20-2020> <23:30:57>  >>>> CORORT
 <Oct20-2020> <23:30:57>  >>>> CLSMAT
 <Oct20-2020> <23:30:57>  >>>> ORTHON
 <Oct20-2020> <23:30:57>  >>>> GENPT
 <Oct20-2020> <23:30:57>  Block Length= 128
 <Oct20-2020> <23:30:57>  >>>> PTBAS
 <Oct20-2020> <23:30:58>  combining surface points...
 <Oct20-2020> <23:30:58>  combining surface points...
 <Oct20-2020> <23:30:58>  combining surface points...
 <Oct20-2020> <23:30:58>  >>>> CYCLE
 <Oct20-2020> <23:31:00>              |Error|         MaxErr       Wt(A-DIIS)
 <Oct20-2020> <23:31:00>      1      0.08904171      0.01133993
 <Oct20-2020> <23:31:01>      2      0.25257749      0.04104666    100.0
 <Oct20-2020> <23:31:02>      3      0.09346134      0.01657157    100.0
 <Oct20-2020> <23:31:03>      4      0.15002060      0.02420682    100.0
 <Oct20-2020> <23:31:04>      5      0.19673573      0.03541123    100.0
 <Oct20-2020> <23:31:05>      6      0.03892153      0.00529864      4.3
 <Oct20-2020> <23:31:06>      7      0.03488222      0.00591748      4.3
 <Oct20-2020> <23:31:07>      8      0.01345290      0.00224812      1.3
 <Oct20-2020> <23:31:08>      9      0.00259149      0.00034584      0.0
 <Oct20-2020> <23:31:09>     10      0.00256458      0.00039068      0.0
 <Oct20-2020> <23:31:09>     11      0.00085350      0.00016074      0.0
 <Oct20-2020> <23:31:10>     12      0.00041758      0.00005142      0.0
 <Oct20-2020> <23:31:11>     13      0.00013795      0.00002773      0.0
 <Oct20-2020> <23:31:12>     14      0.00003026      0.00000587      0.0
 <Oct20-2020> <23:31:13>     15      0.00001035      0.00000160      0.0
 <Oct20-2020> <23:31:14>     16      0.00000758      0.00000104      0.0
 <Oct20-2020> <23:31:15>     17      0.00000119      0.00000017      0.0
 <Oct20-2020> <23:31:15>  SCF converged
 <Oct20-2020> <23:31:16>     18      0.00000065      0.00000007      0.0
 <Oct20-2020> <23:31:16>  >>>> TOTEN
 <Oct20-2020> <23:31:18>  QTAIM: determining topology...
 <Oct20-2020> <23:31:20>  >>>> POPAN
 <Oct20-2020> <23:31:20>  >>>> DEBYE
 <Oct20-2020> <23:31:20>  >>>> AMETS
 <Oct20-2020> <23:31:20>  >>>> POPUL
 <Oct20-2020> <23:31:20>   Bond Energy          -4.87429787 a.u.
 <Oct20-2020> <23:31:20>   Bond Energy        -132.63639369 eV
 <Oct20-2020> <23:31:20>   Bond Energy       -3058.67       kcal/mol
 <Oct20-2020> <23:31:20>  >>>> ENHESS
 <Oct20-2020> <23:31:22>  === NUCLEUS:     1
 <Oct20-2020> <23:32:19>  === NUCLEUS:     2
 <Oct20-2020> <23:33:13>  === NUCLEUS:     3
 <Oct20-2020> <23:34:08>  === NUCLEUS:     4
 <Oct20-2020> <23:34:58>  === NUCLEUS:     5
 <Oct20-2020> <23:35:48>  === NUCLEUS:     6
 <Oct20-2020> <23:36:36>  === NUCLEUS:     7
 <Oct20-2020> <23:37:26>  === NUCLEUS:     8
 <Oct20-2020> <23:38:16>  === NUCLEUS:     9
 <Oct20-2020> <23:39:06>  === NUCLEUS:    10
 <Oct20-2020> <23:39:55>  === NUCLEUS:    11
 <Oct20-2020> <23:40:45>  === NUCLEUS:    12
 <Oct20-2020> <23:41:34>  === NUCLEUS:    13
 <Oct20-2020> <23:42:24>  === NUCLEUS:    14
 <Oct20-2020> <23:43:15>  >>>> CALC_HESS_PMAT
 <Oct20-2020> <23:43:20>  >>>> CALC_HESS_WMAT
 <Oct20-2020> <23:43:22>  Symmetry  : NOSYM
 <Oct20-2020> <23:43:22>  >>>> FRAGM
 <Oct20-2020> <23:43:22>  Geometry symmetry displacement    1 out of    2
  Coordinates in Geometry Cycle 45
    Atom         X           Y           Z   (Angstrom)
    1.W        13.813095   10.732651    2.280607
    2.O        13.547652   11.883556    0.943055
    3.W        11.594177   11.582398    4.733335
    4.W         9.634188   10.923833    2.158541
    5.O        11.838202   13.241622    5.329119
    6.O        13.398602    9.063700    1.805472
    7.O        10.069376   10.391870    0.513593
    8.O         8.710317   12.424916    1.856632
    9.O        13.483102   11.305878    4.112620
   10.O        15.593387   10.687858    2.440656
   11.O        11.524797   10.998336    2.753033
   12.O        11.670113   10.451695    6.104565
   13.O         9.787129   11.583580    4.330493
   14.O         8.553134    9.615948    2.722632
 <Oct20-2020> <23:43:22>  >>>> CORORT
 <Oct20-2020> <23:43:22>  >>>> CLSMAT
 <Oct20-2020> <23:43:22>  >>>> ORTHON
 <Oct20-2020> <23:43:22>  >>>> GENPT
 <Oct20-2020> <23:43:22>  Block Length= 128
 <Oct20-2020> <23:43:22>  >>>> PTBAS
 <Oct20-2020> <23:43:23>  combining surface points...
 <Oct20-2020> <23:43:23>  combining surface points...
 <Oct20-2020> <23:43:23>  combining surface points...
 <Oct20-2020> <23:43:23>  >>>> CYCLE
 <Oct20-2020> <23:43:25>              |Error|         MaxErr       Wt(A-DIIS)
 <Oct20-2020> <23:43:25>      1      0.09823195      0.01607877
 <Oct20-2020> <23:43:26>      2      0.25257553      0.03051340    100.0
 <Oct20-2020> <23:43:27>      3      0.09346925      0.01462215    100.0
 <Oct20-2020> <23:43:28>      4      0.15006943      0.01979430    100.0
 <Oct20-2020> <23:43:29>      5      0.19663890      0.02732552    100.0
 <Oct20-2020> <23:43:30>      6      0.03893432      0.00546613      4.5
 <Oct20-2020> <23:43:31>      7      0.03502339      0.00498329      4.0
 <Oct20-2020> <23:43:32>      8      0.01338213      0.00184948      0.9
 <Oct20-2020> <23:43:33>      9      0.00259931      0.00029939      0.0
 <Oct20-2020> <23:43:34>     10      0.00256326      0.00040990      0.0
 <Oct20-2020> <23:43:35>     11      0.00086720      0.00017060      0.0
 <Oct20-2020> <23:43:35>     12      0.00042121      0.00005924      0.0
 <Oct20-2020> <23:43:36>     13      0.00013844      0.00002976      0.0
 <Oct20-2020> <23:43:37>     14      0.00003031      0.00000631      0.0
 <Oct20-2020> <23:43:38>     15      0.00001036      0.00000160      0.0
 <Oct20-2020> <23:43:39>     16      0.00000763      0.00000112      0.0
 <Oct20-2020> <23:43:40>     17      0.00000119      0.00000017      0.0
 <Oct20-2020> <23:43:40>  SCF converged
 <Oct20-2020> <23:43:41>     18      0.00000062      0.00000007      0.0
 <Oct20-2020> <23:43:41>  >>>> TOTEN
 <Oct20-2020> <23:43:41>  >>>> POPAN
 <Oct20-2020> <23:43:41>  >>>> DEBYE
 <Oct20-2020> <23:43:41>  >>>> ENGRAD
 <Oct20-2020> <23:43:44>  Geometry symmetry displacement    2 out of    2
  Coordinates in Geometry Cycle 45
    Atom         X           Y           Z   (Angstrom)
    1.W        13.813087   10.732499    2.280657
    2.O        13.548558   11.883086    0.942658
    3.W        11.594191   11.582544    4.733284
    4.W         9.634185   10.923903    2.158526
    5.O        11.837470   13.241859    5.329077
    6.O        13.397654    9.063625    1.806052
    7.O        10.069526   10.393824    0.513008
    8.O         8.708532   12.424180    1.858045
    9.O        13.483138   11.306454    4.112451
   10.O        15.593328   10.686718    2.441001
   11.O        11.524878   10.999746    2.752617
   12.O        11.670891   10.451819    6.104471
   13.O         9.787057   11.582533    4.330795
   14.O         8.554750    9.614375    2.721874
 <Oct20-2020> <23:43:44>  >>>> CORORT
 <Oct20-2020> <23:43:44>  >>>> CLSMAT
 <Oct20-2020> <23:43:44>  >>>> ORTHON
 <Oct20-2020> <23:43:44>  >>>> GENPT
 <Oct20-2020> <23:43:44>  Block Length= 128
 <Oct20-2020> <23:43:44>  >>>> PTBAS
 <Oct20-2020> <23:43:44>  combining surface points...
 <Oct20-2020> <23:43:44>  combining surface points...
 <Oct20-2020> <23:43:44>  combining surface points...
 <Oct20-2020> <23:43:44>  >>>> CYCLE
 <Oct20-2020> <23:43:46>              |Error|         MaxErr       Wt(A-DIIS)
 <Oct20-2020> <23:43:46>      1      0.12170916      0.03221102
 <Oct20-2020> <23:43:47>      2      0.25257059      0.03050733    100.0
 <Oct20-2020> <23:43:48>      3      0.09347293      0.01462435    100.0
 <Oct20-2020> <23:43:49>      4      0.15009817      0.01980217    100.0
 <Oct20-2020> <23:43:50>      5      0.19659080      0.02731428    100.0
 <Oct20-2020> <23:43:51>      6      0.03893852      0.00546717      4.5
 <Oct20-2020> <23:43:52>      7      0.03501784      0.00498252      4.0
 <Oct20-2020> <23:43:53>      8      0.01337947      0.00184988      0.9
 <Oct20-2020> <23:43:54>      9      0.00259935      0.00029944      0.0
 <Oct20-2020> <23:43:55>     10      0.00256265      0.00040979      0.0
 <Oct20-2020> <23:43:56>     11      0.00086700      0.00017060      0.0
 <Oct20-2020> <23:43:57>     12      0.00042123      0.00005921      0.0
 <Oct20-2020> <23:43:58>     13      0.00013846      0.00002975      0.0
 <Oct20-2020> <23:43:59>     14      0.00003030      0.00000630      0.0
 <Oct20-2020> <23:44:00>     15      0.00001034      0.00000159      0.0
 <Oct20-2020> <23:44:01>     16      0.00000763      0.00000112      0.0
 <Oct20-2020> <23:44:01>     17      0.00000119      0.00000017      0.0
 <Oct20-2020> <23:44:02>  SCF converged
 <Oct20-2020> <23:44:02>     18      0.00000062      0.00000007      0.0
 <Oct20-2020> <23:44:03>  >>>> TOTEN
 <Oct20-2020> <23:44:03>  >>>> POPAN
 <Oct20-2020> <23:44:03>  >>>> DEBYE
 <Oct20-2020> <23:44:03>  >>>> ENGRAD
 <Oct20-2020> <23:44:05>  Old frequency:    -16.92421, new:     23.19196
 <Oct20-2020> <23:44:05>  NOTE: Some frequencies have been re-calculated by numerical differentiation
 <Oct20-2020> <23:44:05>        Check the text output file for new values!
 <Oct20-2020> <23:44:05>  NORMAL TERMINATION
 <Oct20-2020> <23:44:05>  END
