
 *******************************************************************************
 *                                                                             *
 *  -------------------------------------                                      *
 *   Amsterdam Density Functional  (ADF)         2019                          *
 *  -------------------------------------                                      *
 *                                               r79301 2019-11-09             *
 *                                                                             *
 *                                                                             *
 *                            =====================                            *
 *                            |                   |                            *
 *                            |     D I R A C     |                            *
 *                            |                   |                            *
 *                            =====================                            *
 *                                                                             *
 *                                                                             *
 *   Online information and documentation:  https://www.scm.com/support/       *
 *   E-mail:  support@scm.com   info@scm.com                                   *
 *                                                                             *
 *   Scientific publications using ADF results must be properly referenced     *
 *   See the User Manuals (or the web site) for recommended citations          *
 *   The terms and conditions of the End User License Agreement apply to       *
 *   the use of ADF, https://www.scm.com/license-terms/                        *
 *                                                                             *
 **********************  x86_64_linux_intel / intelmpi  ************************
 
 
 
  
 DIRAC 2019  RunTime: Sep07-2020 18:17:59  Nodes: 1  Procs: 1

 Temporary files are created in /scratch/kid_0.2002369574 (0x58465342)

1
 HYDROGEN ATOM RELATIVISTIC, Point Nuc, A and c from libtc   
 N J RN H ZN XION ANUC CLIGHT
 5000    1100.00000000197.36710137  1.00000000  0.00000000    1.007825  0.1370360E+03
  PH   PHI     EPS        DEL        DELRVR
  0.30  0.30     2500.00  0.00001000  0.00001000
 IDIRC  NC1  NDEBU NPRIN  IPUN IRCOR IWCOR
   1   300     0     0     0     0     0
   XALPHA      XLATTER      RNUC
  0.70000000  0.00000000  0.00000000 Point Charge
   XN   XL   XJ      XE          XZ      XDELL
  1.0  0.0  0.5      -1.000       1.000     0.00000
 ICORP=  0  NPCL=  0  DEMP=0.00  PEPS=0.000000
 R(1)=  0.1000000E-08 D=  0.1005080E+01 RNUC=  0.0000000E+00
 converged at cycle   32  DENSITY AVERAGING    0.2400
  MAXIMUM ERROR IN R.V(R) IS   0.79874357E-05
 Q,EY,EV,EZ,ESUM,ETOT,RHO  0.100000E+01 -0.266614E+00 -0.619969E+00 -0.910779E+00 -0.203940E+00 -0.415998E+00  0.337036E-17


 DIRAC CALCULATION
1                    HYDROGEN ATOM RELATIVISTIC, Point Nuc, A and c from libtc


 EXCHANGE COEFFICIENT=  0.7000000           TAIL CORRECTION=  0.           NUCLEAR RADIUS=  0.000E+00
0                       ORBITAL    N    L    J     ELECTRONS     EIGENVALUE                DELTA OF EIGENV.

                          1S1/2  1.0  0.0  0.5     1.000       -0.2039397E+00                 0.2720093E-06


                                        NUCLEAR CHARGE=    1.000000
                            INTEGRAL OF CHARGE DENSITY=    1.000000
                           SUM OF THE ORBITAL ENERGIES=     -0.2039
                                          TOTAL ENERGY=     -0.4160
                                        KINETIC ENERGY=      0.4160
                             NUCLEAR ATTRACTION ENERGY=     -0.9108
                             ELECTRON REPULSION ENERGY=      0.2787
                                       EXCHANGE ENERGY=     -0.2000

 *******************************************************************************

                             D I R A C   E X I T
 NORMAL TERMINATION



 =================
 Timing Statistics
 =================
  
 Total Used :                     CPU=        0.06      System=        0.00     Elapsed=        0.07

 Calls  Section                     ( Mean, Percentage )
 ---------------------------------------------------------------------------------------------------
     2  ><      ................      0.00    0.00             0.00    0.00             0.00    0.01
     1  EXIT PROCEDURE .........      0.06  100.00             0.00    0.00             0.07   99.99


 Currently Open Files (EXIT00)
 ====================

 Unit    Access Format  Status   Type       Ident (file)
 -------------------------------------------------------
   3      SEQ    FORM   TRANSP  NORMAL      LOGFILE
                                          ( logfile )
 
Create H   file=TZP-H
XC
  GGA PBE
End
relativistic ZORA
Corepotentials t12.rel
End

 *******************************************************************************
 *                                                                             *
 *  -------------------------------------                                      *
 *   Amsterdam Density Functional  (ADF)         2019                          *
 *  -------------------------------------                                      *
 *                                               r79301 2019-11-09             *
 *                                                                             *
 *                                                                             *
 *                              =================                              *
 *                              |               |                              *
 *                              |     A D F     |                              *
 *                              |               |                              *
 *                              =================                              *
 *                                                                             *
 *                                                                             *
 *   Online information and documentation:  https://www.scm.com/support/       *
 *   E-mail:  support@scm.com   info@scm.com                                   *
 *                                                                             *
 *   Scientific publications using ADF results must be properly referenced     *
 *   See the User Manuals (or the web site) for recommended citations          *
 *   The terms and conditions of the End User License Agreement apply to       *
 *   the use of ADF, https://www.scm.com/license-terms/                        *
 *                                                                             *
 **********************  x86_64_linux_intel / intelmpi  ************************
 
 
 
  
 ADF 2019  RunTime: Sep07-2020 18:17:59  Nodes: 1  Procs: 1

 Temporary files are created in /scratch/kid_0.2012934284 (0x58465342)

 Hydrogen (TZP)



 ===========================
 A T T A C H E D   F I L E S
 ===========================
  
 CREATE - Data File:    TZP-H
                        Hydrogen (TZP)
 Core Potentials:
         file : t12.rel



 ===============================
 M O D E L   P A R A M E T E R S
 ===============================
  
 DENSITY FUNCTIONAL POTENTIAL (scf)
    LDA:                               PW92                                    == Not Default ==
    Gradient Corrections:              PBEc PBEx                               == Not Default ==

 SPIN  (restricted / unrestr.)
    Molecule:                          Restricted                               

 OTHER ASPECTS
    Relativistic Corrections:          scalar (ZORA,MAPA)                      == Not Default ==

    Nuclear Charge Density Model:      Point Charge Nuclei                      
    Core Treatment:                    Frozen Orbital(s)                        

    Hyperfine or Zeeman Interaction:   ---                                      



 =====================================
 S Y M M E T R Y ,   E L E C T R O N S
 =====================================
  
 Symmetry: ATOM

 Irreducible Representations, including subspecies
 -------------------------------------------------
 S
 P:x  P:y  P:z
 D:z2  D:x2-y2  D:xy  D:xz  D:yz
 F:z3  F:z  F:xyz  F:z2x  F:z2y  F:x  F:y


 Configuration of Valence Electrons
 ==================================

          Occupation Numbers
          -------------------------------------------------
 S        1
 P        0
 D        0
 F        0
          -------------------------------------------------

 Total:   1

 Net Charge: 0 (Nuclei minus Electrons)

 Preset values for MO occupations will be applied through SCF cycle no. 1000000
 Thereafter, the program will assign electrons to MOs that are spatially
 similar to the occupied MOs in a "reference" cycle ("KeepOrbitals").
 The reference cycle is always the PREVIOUS cycle: it will evolve with
 the SCF procedure.



 ================================
 (Slater-type)  F U N C T I O N S  ***  (Basis and Fit)  ***
 ================================
  

 Atom Type    1  (H)
 ==============

 Valence Basis Sets:   4
 -----------------------
   1 S    0.690000
   1 S    0.920000
   1 S    1.580000
   2 P    1.250000


 BAS: List of all Elementary Cartesian Basis Functions
 =====================================================

 The numbering in the list below (to the right of the function characteristics) is referred
 to in print-outs of MO eigenvectors and Mulliken populations in the BAS representation
 (as contrasted to the SFO representation).

 Notes:
 1. The functions are characterized by a polynomial prefactor (powers of x,y,z and r) and
    an exponential decay factor alpha.
 2. Since the basis sets are specific for an atom TYPE, the individual functions occur on
    all atoms of that type.
 3. The word 'Core' in the left margin signals that it is a Core Function (CF) : not a
    degree of freedom in the valence set, but only used to ensure orthogonalization of
    the other valence basis functions on the frozen Core Orbitals.


 (power of) X  Y  Z  R     Alpha  on Atom
            ==========     =====     ==========

 H                                    1
                                  ---------------------------------------------------------------------------
            0  0  0  0     0.690      1
            0  0  0  0     0.920      2
            0  0  0  0     1.580      3
            1  0  0  0     1.250      4
            0  1  0  0     1.250      5
            0  0  1  0     1.250      6

 Total number of charge fitting functions (nprimf)        50
 Total number of Cartesian basis functions (naos)          6
 Total number of Cartesian core functions  (ncos)          0



 BAS: List of all Elementary Cartesian Basis Functions
 =====================================================

 The numbering in the list below (to the right of the function characteristics) is referred
 to in print-outs of MO eigenvectors and Mulliken populations in the BAS representation
 (as contrasted to the SFO representation).

 Notes:
 1. The functions are characterized by a polynomial prefactor (powers of x,y,z and r) and
    an exponential decay factor alpha.
 2. Since the basis sets are specific for an atom TYPE, the individual functions occur on
    all atoms of that type.
 3. The word 'Core' in the left margin signals that it is a Core Function (CF) : not a
    degree of freedom in the valence set, but only used to ensure orthogonalization of
    the other valence basis functions on the frozen Core Orbitals.


 (power of) X  Y  Z  R     Alpha  on Atom
            ==========     =====     ==========

 H                                    1
                                  ---------------------------------------------------------------------------
            0  0  0  0     0.690      1
            0  0  0  0     0.920      2
            0  0  0  0     1.580      3
            1  0  0  0     1.250      4
            0  1  0  0     1.250      5
            0  0  1  0     1.250      6
1
 ***************************************************************************************************



                                              ***********************
                                              *  T E C H N I C A L  *
                                              ***********************
  



 =============================================================
 P A R A L L E L I Z A T I O N  and  V E C T O R I Z A T I O N
 =============================================================
  
 Nr of parallel processes:                                1
 Maximum vector length in NumInt loops:                 128



 =====================
 S C F   U P D A T E S
 =====================
  
 Max. nr. of cycles:                               300
 Convergence criterion:                              0.0000000100
   secondary criterion:                              0.0000000100

 Mix parameter (when DIIS does not apply):           0.2000000000
 Special mix parameter for the first cycle:          1.0000000000
 Mixed ADIIS+SDIIS will be used                  
    Max number of expansion vectors:                10
    Pure ADIIS when Max([F,P]) is above              0.1000000000
    Pure SDIIS when Max([F,P]) is below              0.0010000000
 Automatic ElectronSmearing (in case of problematic SCF convergence) disabled



 =================
 P R E C I S I O N  ***  (General: NumInt, NeglectFunctionTails, ...)  ***
 =================
  

 NumInt:           Target precision:                12.0000000000
 -------           Initial precision:               10.0000000000
                   Min. precision (optimization):   10.0000000000

 Neglect Functions:          Basis functions:        0.1000000000E-13
 ------------------          Fit functions:          0.1000000000E-13



 ===========================
 L I N E A R   S C A L I N G
 ===========================
  

 Cut-off radii density fit:                        0.1000000000E-97
 Overlap cut-off criterion AO matrix elements:     0.1000000000E-97
 Cut-offs for Coulomb potential and fitted density:0.1000000000E-97
 Cut-off criterion for Coulomb multipole terms:    0.1000000000E-97
 Progressive Convergence parameter:                 0.000000000    
1
 ***************************************************************************************************



                                            ***************************
                                            *  C O M P U T A T I O N  *
                                            ***************************
  

 Number of elements of the density matrix on this node (used, total):        21        21



 ===========================================
 Numerical Integration : Fuzzy Cells (Becke)
 ===========================================
  
 Becke grid quality: VERYGOOD       
  
 Lebedev angular grid order:             min:  13 max:  41
 Nr. of radial points:                   min:  64 max:  64

 Total nr. of points:         64
 Nr. of blocks:                1
 Block length:                64
 Nr. of dummy points:          0


 Test of Precision of the Numerical Integration Grid
 ===================================================

 Integral of the Total Core Density:                   0.00000000000000



 ========================
 Density Fitting (zlmFit)
 ========================
  
 ZlmFit Fit Quality: VERYGOOD       
  
 Max L-expansion:                        min:   0 max:   0
 Nr. of radial interpolation points:     min: 120 max: 120



 =====
 S C F  ***  ScaSCF  ***
 =====
  

 CYCLE    1
 SCF Error: norm([F,P])=      0.000000000000, max([F,P])=      0.000000000000
 orbitals (Q,E):
 ---------------
 S :1...3            ( 1.00    -0.5000)  ( 0.00    -0.0900)  ( 0.00     1.2936)
 P :1...1            ( 0.00     0.1562)

 CYCLE    2
 SCF Error: norm([F,P])=      0.031537872292, max([F,P])=      0.030110494752
 orbitals (Q,E):
 ---------------
 S :1...2            ( 1.00    -0.2218)  ( 0.00     0.1019)
 P :1...1            ( 0.00     0.4189)

 CYCLE    3
  SDIIS (wt  0.000):  0.1996  0.8004
 A-DIIS (wt  1.000):  0.0000  1.0000
  DIIS coefficients:  0.0000  1.0000
 SCF Error: norm([F,P])=      0.008617989401, max([F,P])=      0.008343029399
 orbitals (Q,E):
 ---------------
 S :1...2            ( 1.00    -0.2422)  ( 0.00     0.0889)
 P :1...1            ( 0.00     0.4024)

 CYCLE    4
  SDIIS (wt  0.993):  0.1666  0.8334
 A-DIIS (wt  0.007):  0.0000  1.0000
  DIIS coefficients:  0.1654  0.8346
 SCF Error: norm([F,P])=      0.001732350026, max([F,P])=      0.001718616814
 orbitals (Q,E):
 ---------------
 S :1...2            ( 1.00    -0.2385)  ( 0.00     0.0908)
 P :1...1            ( 0.00     0.4054)

 CYCLE    5
  SDIIS (wt  1.000):  0.0236  0.9764
  DIIS coefficients:  0.0236  0.9764
 SCF Error: norm([F,P])=      0.000043673449, max([F,P])=      0.000039769875
 orbitals (Q,E):
 ---------------
 S :1...2            ( 1.00    -0.2386)  ( 0.00     0.0908)
 P :1...1            ( 0.00     0.4054)

 CYCLE    6
  SDIIS (wt  1.000): -0.0577  1.0577
  DIIS coefficients: -0.0577  1.0577
 SCF Error: norm([F,P])=      0.000002383805, max([F,P])=      0.000002158128
 orbitals (Q,E):
 ---------------
 S :1...2            ( 1.00    -0.2386)  ( 0.00     0.0908)
 P :1...1            ( 0.00     0.4054)

 CYCLE    7
  SDIIS (wt  1.000): -0.0032  1.0032
  DIIS coefficients: -0.0032  1.0032
 SCF Error: norm([F,P])=      0.000000007721, max([F,P])=      0.000000007228
 orbitals (Q,E):
 ---------------
 S :1...2            ( 1.00    -0.2386)  ( 0.00     0.0908)
 P :1...1            ( 0.00     0.4054)

 SCF CONVERGED

 CYCLE    8
1
 ***************************************************************************************************



                                                *******************
                                                *  R E S U L T S  *
                                                *******************
  
 *** Using FIT density in Focky
  SDIIS (wt  1.000):  0.0192  0.9808
  DIIS coefficients:  0.0192  0.9808
 SCF Error: norm([F,P])=      0.000000000151, max([F,P])=      0.000000000141

 Scaled ZORA Orbital Energies, per Irrep and Spin:
 =================================================
                        Occup              E (au)              E (eV)       Diff (eV) with prev. cycle
                        -----      --------------------        ------       --------------------------
 S
               1        1.000     -0.23861775226993E+00        -6.493               7.43E-09
               2        0.000      0.90791701709251E-01         2.471
               3        0.000      0.15217530108908E+01        41.409
 P
               1        0.000      0.40537978060393E+00        11.031


 Partially Occupied:
               1 S                -0.23861775226993E+00
  
 LUMO :        2 S                 0.90791701709251E-01
  


 Orbital Energies, all Irreps
 ========================================

 Irrep        no.  (spin)   Occup              E (au)                E (eV)
 ---------------------------------------------------------------------------
 S             1             1.00       -0.23861775226993E+00        -6.4931
 S             2             0.00        0.90791701709251E-01         2.4706
 P             1             0.00        0.40537978060393E+00        11.0309
 S             3             0.00        0.15217530108908E+01        41.4090


 All Electron Calculation, thus no Orbital Energies of the Core Orbitals are calculated



 =======================================
 M U L L I K E N   P O P U L A T I O N S
 =======================================
  
 The survey below gives for each atom:
 a) the total charge (Z minus electrons)
 b) the net spin polarization (nr of electrons spin-A minus spin-B)
 c) for each spin the atomic electron valence density (integrated) per L-value.

 Atom              Charge    Spin density          S         P         D         F
 ----              ------    ------------       ------    ------    ------    ------
 1 H              -0.0000                       1.0000    0.0000    0.0000    0.0000

 Populations of individual BAS functions
 ----------------------------------------
 1 H            0.2104  0.6788  0.1107  0.0000  0.0000  0.0000

 Gross Charges per Atom (Z minus electrons)
 ==========================================
            -0.0000
 Net Total: -0.00000000



 =======================================================================
 Electrostatic potential at the Nuclei due to electrons and other nuclei
 =======================================================================
  
         Atom                  Potential
         ----                  ---------
     1)   H                   0.94468022
 
 
 ========================
 No memory problems found
 ========================
 
 Maximum number of active allocate calls:         306
 
 *******************************************************************************

                             A D F   E X I T
 NORMAL TERMINATION



 =================
 Timing Statistics
 =================
  
 Total Used :                     CPU=        0.34      System=        0.03     Elapsed=        0.40

 Calls  Section                     ( Mean, Percentage )
 ---------------------------------------------------------------------------------------------------
     3  ><      ................      0.00    1.19             0.00    0.00             0.00    1.15
     1  INIT    ................      0.07   20.24             0.00   14.28             0.08   20.34
     1  GEOMET  ................      0.02    4.76             0.00   14.29             0.02    5.89
     1  INPUTA  ................      0.00    1.19             0.00    0.00             0.00    0.86
     1  MAINSY  ................      0.01    3.57             0.00    0.00             0.01    3.32
     1  SYMFIT  ................      0.00    0.00             0.00    0.00             0.00    0.43
     1  CORORT  ................      0.00    0.00             0.00    0.00             0.00    0.31
     1  SYMORB  ................      0.00    0.00             0.00    0.00             0.00    0.19
     1  CLSMAT  ................      0.00    1.19             0.00   14.28             0.01    1.33
     1  ORTHON  ................      0.00    1.19             0.00    0.00             0.00    1.20
     1  GENPT   ................      0.01    3.57             0.00    0.00             0.01    3.20
     1  PTBAS   ................      0.00    1.19             0.00    0.00             0.01    1.32
     8  FOCKY   ................      0.02   45.24             0.00   42.86             0.02   45.24
     8  FOCKTR  ................      0.00    3.57             0.00    0.00             0.00    1.20
     8  SDIIS   ................      0.00    4.76             0.00    0.00             0.00    5.49
     1  COREPS  ................      0.02    4.76             0.00    0.00             0.01    3.59
     1  POPAN   ................      0.00    1.19             0.00    0.00             0.00    1.19
     1  DEBYE   ................      0.00    0.00             0.00    0.00             0.00    0.47
     1  EXIT PROCEDURE .........      0.01    2.38             0.00   14.28             0.01    3.28


 Currently Open Files (EXIT00)
 ====================

 Unit    Access Format  Status   Type       Ident (file)
 -------------------------------------------------------
   3      SEQ    FORM   TRANSP  NORMAL      LOGFILE
                                          ( logfile )

 ***************************************************************************************************
 (LOGFILE)
 <Sep07-2020> <18:17:59>  DIRAC 2019  RunTime: Sep07-2020 18:17:59  Nodes: 1  Procs: 1
 <Sep07-2020> <18:17:59>  NORMAL TERMINATION
 <Sep07-2020> <18:17:59>  END
 <Sep07-2020> <18:17:59>  ADF 2019  RunTime: Sep07-2020 18:17:59  Nodes: 1  Procs: 1
 <Sep07-2020> <18:17:59>  Hydrogen (TZP)
 <Sep07-2020> <18:17:59>  RunType   : CREATE
 <Sep07-2020> <18:17:59>  Net Charge: 0 (Nuclei minus Electrons)
 <Sep07-2020> <18:17:59>  Symmetry  : ATOM
  Coordinates
    Atom         X           Y           Z   (Angstrom)
    1.H         0.000000    0.000000    0.000000
 <Sep07-2020> <18:17:59>  >>>> CORORT
 <Sep07-2020> <18:17:59>  >>>> CLSMAT
 <Sep07-2020> <18:17:59>  >>>> ORTHON
 <Sep07-2020> <18:17:59>  >>>> GENPT
 <Sep07-2020> <18:17:59>  Block Length=  64
 <Sep07-2020> <18:17:59>  >>>> PTBAS
 <Sep07-2020> <18:17:59>  >>>> CYCLE
 <Sep07-2020> <18:17:59>              |Error|         MaxErr       Wt(A-DIIS)
 <Sep07-2020> <18:17:59>      1      0.00000000      0.00000000
 <Sep07-2020> <18:17:59>      2      0.03153787      0.03011049
 <Sep07-2020> <18:17:59>      3      0.00861799      0.00834303    100.0
 <Sep07-2020> <18:17:59>      4      0.00173235      0.00171862      0.7
 <Sep07-2020> <18:17:59>      5      0.00004367      0.00003977      0.0
 <Sep07-2020> <18:17:59>      6      0.00000238      0.00000216      0.0
 <Sep07-2020> <18:17:59>      7      0.00000001      0.00000001      0.0
 <Sep07-2020> <18:17:59>  SCF converged
 <Sep07-2020> <18:17:59>      8      0.00000000      0.00000000      0.0
 <Sep07-2020> <18:17:59>  >>>> POPAN
 <Sep07-2020> <18:17:59>  >>>> DEBYE
 <Sep07-2020> <18:17:59>  NORMAL TERMINATION
 <Sep07-2020> <18:17:59>  END

 *******************************************************************************
 *                                                                             *
 *  -------------------------------------                                      *
 *   Amsterdam Density Functional  (ADF)         2019                          *
 *  -------------------------------------                                      *
 *                                               r79301 2019-11-09             *
 *                                                                             *
 *                                                                             *
 *                            =====================                            *
 *                            |                   |                            *
 *                            |     D I R A C     |                            *
 *                            |                   |                            *
 *                            =====================                            *
 *                                                                             *
 *                                                                             *
 *   Online information and documentation:  https://www.scm.com/support/       *
 *   E-mail:  support@scm.com   info@scm.com                                   *
 *                                                                             *
 *   Scientific publications using ADF results must be properly referenced     *
 *   See the User Manuals (or the web site) for recommended citations          *
 *   The terms and conditions of the End User License Agreement apply to       *
 *   the use of ADF, https://www.scm.com/license-terms/                        *
 *                                                                             *
 **********************  x86_64_linux_intel / intelmpi  ************************
 
 
 
  
 DIRAC 2019  RunTime: Sep07-2020 18:17:59  Nodes: 1  Procs: 1

 Temporary files are created in /scratch/kid_0.378601082 (0x58465342)

1
 OXYGEN ATOM 1s CORE RELATIVISTIC, Point Nuc, A and c from li
 N J RN H ZN XION ANUC CLIGHT
 5000    4100.00000000197.36710137  8.00000000  0.00000000   15.994914  0.1370360E+03
  PH   PHI     EPS        DEL        DELRVR
  0.30  0.30     2500.00  0.00001000  0.00001000
 IDIRC  NC1  NDEBU NPRIN  IPUN IRCOR IWCOR
   1   300     0     0     0     0     1
   XALPHA      XLATTER      RNUC
  0.70000000  0.00000000  0.00000000 Point Charge
   XN   XL   XJ      XE          XZ      XDELL
  1.0  0.0  0.5      -5.000       2.000     0.00000
  2.0  0.0  0.5      -1.000       2.000     0.00000
  2.0  1.0  0.5      -1.000       2.000     0.00000
  2.0  1.0  1.5      -1.000       2.000     0.00000
 ICORP=  0  NPCL=  0  DEMP=0.00  PEPS=0.000000
 R(1)=  0.1000000E-08 D=  0.1005080E+01 RNUC=  0.0000000E+00
 converged at cycle   28  DENSITY AVERAGING    0.2400
  MAXIMUM ERROR IN R.V(R) IS   0.81125670E-05
 Q,EY,EV,EZ,ESUM,ETOT,RHO  0.800000E+01 -0.101247E+02 -0.114961E+03 -0.177573E+03 -0.405053E+02 -0.743427E+02  0.414766E-14


 DIRAC CALCULATION
1                    OXYGEN ATOM 1s CORE RELATIVISTIC, Point Nuc, A and c from libtc


 EXCHANGE COEFFICIENT=  0.7000000           TAIL CORRECTION=  0.           NUCLEAR RADIUS=  0.000E+00
0                       ORBITAL    N    L    J     ELECTRONS     EIGENVALUE                DELTA OF EIGENV.

                          1S1/2  1.0  0.0  0.5     2.000       -0.1880014E+02                 0.7264358E-06
                          2S1/2  2.0  0.0  0.5     2.000       -0.8412236E+00                 0.5932752E-05
                          2P1/2  2.0  1.0  0.5     2.000       -0.3063203E+00                 0.5998471E-05
                          2P3/2  2.0  1.0  1.5     2.000       -0.3049609E+00                 0.5986971E-05


                                        NUCLEAR CHARGE=    8.000000
                            INTEGRAL OF CHARGE DENSITY=    8.000000
                           SUM OF THE ORBITAL ENERGIES=    -40.5053
                                          TOTAL ENERGY=    -74.3427
                                        KINETIC ENERGY=     74.4552
                             NUCLEAR ATTRACTION ENERGY=   -177.5730
                             ELECTRON REPULSION ENERGY=     36.3686
                                       EXCHANGE ENERGY=     -7.5935

 *******************************************************************************

                             D I R A C   E X I T
 NORMAL TERMINATION



 =================
 Timing Statistics
 =================
  
 Total Used :                     CPU=        0.10      System=        0.00     Elapsed=        0.12

 Calls  Section                     ( Mean, Percentage )
 ---------------------------------------------------------------------------------------------------
     2  ><      ................      0.00    0.00             0.00    0.00             0.00    0.01
     1  EXIT PROCEDURE .........      0.10  100.00             0.00  100.00             0.12   99.99


 Currently Open Files (EXIT00)
 ====================

 Unit    Access Format  Status   Type       Ident (file)
 -------------------------------------------------------
   3      SEQ    FORM   TRANSP  NORMAL      LOGFILE
                                          ( logfile )
 
Create O   file=TZP-O.1s
XC
  GGA PBE
End
relativistic ZORA
Corepotentials t12.rel
End

 *******************************************************************************
 *                                                                             *
 *  -------------------------------------                                      *
 *   Amsterdam Density Functional  (ADF)         2019                          *
 *  -------------------------------------                                      *
 *                                               r79301 2019-11-09             *
 *                                                                             *
 *                                                                             *
 *                              =================                              *
 *                              |               |                              *
 *                              |     A D F     |                              *
 *                              |               |                              *
 *                              =================                              *
 *                                                                             *
 *                                                                             *
 *   Online information and documentation:  https://www.scm.com/support/       *
 *   E-mail:  support@scm.com   info@scm.com                                   *
 *                                                                             *
 *   Scientific publications using ADF results must be properly referenced     *
 *   See the User Manuals (or the web site) for recommended citations          *
 *   The terms and conditions of the End User License Agreement apply to       *
 *   the use of ADF, https://www.scm.com/license-terms/                        *
 *                                                                             *
 **********************  x86_64_linux_intel / intelmpi  ************************
 
 
 
  
 ADF 2019  RunTime: Sep07-2020 18:17:59  Nodes: 1  Procs: 1

 Temporary files are created in /scratch/kid_0.331912689 (0x58465342)

 Oxygen (TZP, 1s frozen)



 ===========================
 A T T A C H E D   F I L E S
 ===========================
  
 CREATE - Data File:    TZP-O.1s
                        Oxygen (TZP, 1s frozen)
 Core Potentials:
         file : t12.rel



 ===============================
 M O D E L   P A R A M E T E R S
 ===============================
  
 DENSITY FUNCTIONAL POTENTIAL (scf)
    LDA:                               PW92                                    == Not Default ==
    Gradient Corrections:              PBEc PBEx                               == Not Default ==

 SPIN  (restricted / unrestr.)
    Molecule:                          Restricted                               

 OTHER ASPECTS
    Relativistic Corrections:          scalar (ZORA,MAPA)                      == Not Default ==

    Nuclear Charge Density Model:      Point Charge Nuclei                      
    Core Treatment:                    Frozen Orbital(s)                        

    Hyperfine or Zeeman Interaction:   ---                                      



 =====================================
 S Y M M E T R Y ,   E L E C T R O N S
 =====================================
  
 Symmetry: ATOM

 Irreducible Representations, including subspecies
 -------------------------------------------------
 S
 P:x  P:y  P:z
 D:z2  D:x2-y2  D:xy  D:xz  D:yz
 F:z3  F:z  F:xyz  F:z2x  F:z2y  F:x  F:y


 Configuration of Valence Electrons
 ==================================

          Occupation Numbers
          -------------------------------------------------
 S        2
 P        4
 D        0
 F        0
          -------------------------------------------------

 Total:   6

 Net Charge: 0 (Nuclei minus Electrons)

 Preset values for MO occupations will be applied through SCF cycle no. 1000000
 Thereafter, the program will assign electrons to MOs that are spatially
 similar to the occupied MOs in a "reference" cycle ("KeepOrbitals").
 The reference cycle is always the PREVIOUS cycle: it will evolve with
 the SCF procedure.



 ================================
 (Slater-type)  F U N C T I O N S  ***  (Basis and Fit)  ***
 ================================
  

 Atom Type    1  (O)
 ==============

 Valence Basis Sets:   8
 -----------------------
   1 S    7.360000
   2 S    1.720000
   2 S    2.880000
   2 S    7.580000
   2 P    1.120000
   2 P    2.080000
   2 P    4.080000
   3 D    2.000000

 Frozen Core Shells
 ------------------
    S:  1


 BAS: List of all Elementary Cartesian Basis Functions
 =====================================================

 The numbering in the list below (to the right of the function characteristics) is referred
 to in print-outs of MO eigenvectors and Mulliken populations in the BAS representation
 (as contrasted to the SFO representation).

 Notes:
 1. The functions are characterized by a polynomial prefactor (powers of x,y,z and r) and
    an exponential decay factor alpha.
 2. Since the basis sets are specific for an atom TYPE, the individual functions occur on
    all atoms of that type.
 3. The word 'Core' in the left margin signals that it is a Core Function (CF) : not a
    degree of freedom in the valence set, but only used to ensure orthogonalization of
    the other valence basis functions on the frozen Core Orbitals.


 (power of) X  Y  Z  R     Alpha  on Atom
            ==========     =====     ==========

 O                                    1
                                  ---------------------------------------------------------------------------
    Core    0  0  0  0     7.360      1
            0  0  0  1     1.720      2
            0  0  0  1     2.880      3
            0  0  0  1     7.580      4
            1  0  0  0     1.120      5
            0  1  0  0     1.120      6
            0  0  1  0     1.120      7
            1  0  0  0     2.080      8
            0  1  0  0     2.080      9
            0  0  1  0     2.080     10
            1  0  0  0     4.080     11
            0  1  0  0     4.080     12
            0  0  1  0     4.080     13
            2  0  0  0     2.000     14
            1  1  0  0     2.000     15
            1  0  1  0     2.000     16
            0  2  0  0     2.000     17
            0  1  1  0     2.000     18
            0  0  2  0     2.000     19

 Total number of charge fitting functions (nprimf)        82
 Total number of Cartesian basis functions (naos)         19
 Total number of Cartesian core functions  (ncos)          1



 BAS: List of all Elementary Cartesian Basis Functions
 =====================================================

 The numbering in the list below (to the right of the function characteristics) is referred
 to in print-outs of MO eigenvectors and Mulliken populations in the BAS representation
 (as contrasted to the SFO representation).

 Notes:
 1. The functions are characterized by a polynomial prefactor (powers of x,y,z and r) and
    an exponential decay factor alpha.
 2. Since the basis sets are specific for an atom TYPE, the individual functions occur on
    all atoms of that type.
 3. The word 'Core' in the left margin signals that it is a Core Function (CF) : not a
    degree of freedom in the valence set, but only used to ensure orthogonalization of
    the other valence basis functions on the frozen Core Orbitals.


 (power of) X  Y  Z  R     Alpha  on Atom
            ==========     =====     ==========

 O                                    1
                                  ---------------------------------------------------------------------------
    Core    0  0  0  0     7.360      1
            0  0  0  1     1.720      2
            0  0  0  1     2.880      3
            0  0  0  1     7.580      4
            1  0  0  0     1.120      5
            0  1  0  0     1.120      6
            0  0  1  0     1.120      7
            1  0  0  0     2.080      8
            0  1  0  0     2.080      9
            0  0  1  0     2.080     10
            1  0  0  0     4.080     11
            0  1  0  0     4.080     12
            0  0  1  0     4.080     13
            2  0  0  0     2.000     14
            1  1  0  0     2.000     15
            1  0  1  0     2.000     16
            0  2  0  0     2.000     17
            0  1  1  0     2.000     18
            0  0  2  0     2.000     19
1
 ***************************************************************************************************



                                              ***********************
                                              *  T E C H N I C A L  *
                                              ***********************
  



 =============================================================
 P A R A L L E L I Z A T I O N  and  V E C T O R I Z A T I O N
 =============================================================
  
 Nr of parallel processes:                                1
 Maximum vector length in NumInt loops:                 128



 =====================
 S C F   U P D A T E S
 =====================
  
 Max. nr. of cycles:                               300
 Convergence criterion:                              0.0000000100
   secondary criterion:                              0.0000000100

 Mix parameter (when DIIS does not apply):           0.2000000000
 Special mix parameter for the first cycle:          1.0000000000
 Mixed ADIIS+SDIIS will be used                  
    Max number of expansion vectors:                10
    Pure ADIIS when Max([F,P]) is above              0.1000000000
    Pure SDIIS when Max([F,P]) is below              0.0010000000
 Automatic ElectronSmearing (in case of problematic SCF convergence) disabled



 =================
 P R E C I S I O N  ***  (General: NumInt, NeglectFunctionTails, ...)  ***
 =================
  

 NumInt:           Target precision:                12.0000000000
 -------           Initial precision:               10.0000000000
                   Min. precision (optimization):   10.0000000000

 Neglect Functions:          Basis functions:        0.1000000000E-13
 ------------------          Fit functions:          0.1000000000E-13



 ===========================
 L I N E A R   S C A L I N G
 ===========================
  

 Cut-off radii density fit:                        0.1000000000E-97
 Overlap cut-off criterion AO matrix elements:     0.1000000000E-97
 Cut-offs for Coulomb potential and fitted density:0.1000000000E-97
 Cut-off criterion for Coulomb multipole terms:    0.1000000000E-97
 Progressive Convergence parameter:                 0.000000000    
1
 ***************************************************************************************************



                                            ***************************
                                            *  C O M P U T A T I O N  *
                                            ***************************
  

 Number of elements of the density matrix on this node (used, total):       190       190



 ===========================================
 Numerical Integration : Fuzzy Cells (Becke)
 ===========================================
  
 Becke grid quality: VERYGOOD       
  
 Lebedev angular grid order:             min:  13 max:  41
 Nr. of radial points:                   min:  68 max:  68

 Total nr. of points:         68
 Nr. of blocks:                1
 Block length:                68
 Nr. of dummy points:          0


 Test of Precision of the Numerical Integration Grid
 ===================================================

 Integral of the Total Core Density:                   1.99999999865610
 Relative Error:                                      -6.720E-10



 ========================
 Density Fitting (zlmFit)
 ========================
  
 ZlmFit Fit Quality: VERYGOOD       
  
 Max L-expansion:                        min:   0 max:   0
 Nr. of radial interpolation points:     min: 140 max: 140



 =====
 S C F  ***  ScaSCF  ***
 =====
  

 CYCLE    1
 SCF Error: norm([F,P])=      0.000000000000, max([F,P])=      0.000000000000
 orbitals (Q,E):
 ---------------
 S :1...3            ( 2.00    -5.3654)  ( 0.00    -2.2073)  ( 0.00    23.6692)
 P :1...3            ( 4.00    -5.0045)  ( 0.00    -2.0150)  ( 0.00    -0.3846)
 D :1...1            ( 0.00    -2.0410)

 CYCLE    2
 SCF Error: norm([F,P])=      4.562993374873, max([F,P])=      2.528971113813
 orbitals (Q,E):
 ---------------
 S :1...2            ( 2.00    -0.1548)  ( 0.00     1.6948)
 P :1...2            ( 4.00     0.1773)  ( 0.00     0.9552)
 D :1...1            ( 0.00     1.4649)

 CYCLE    3
  SDIIS (wt  0.000):  0.3378  0.6622
 A-DIIS (wt  1.000):  0.4814  0.5186
  DIIS coefficients:  0.4814  0.5186
 SCF Error: norm([F,P])=      2.723155250500, max([F,P])=      1.798667049295
 orbitals (Q,E):
 ---------------
 S :1...2            ( 2.00    -1.1093)  ( 0.00     0.7549)
 P :1...2            ( 4.00    -0.5518)  ( 0.00     0.2590)
 D :1...1            ( 0.00     0.8910)

 CYCLE    4
  SDIIS (wt  0.000):  0.0919  0.9081
 A-DIIS (wt  1.000):  0.0000  1.0000
  DIIS coefficients:  0.0000  1.0000
 SCF Error: norm([F,P])=      0.289027138405, max([F,P])=      0.130648623511
 orbitals (Q,E):
 ---------------
 S :1...2            ( 2.00    -0.7707)  ( 0.00     0.9912)
 P :1...2            ( 4.00    -0.2284)  ( 0.00     0.4046)
 D :1...1            ( 0.00     1.1288)

 CYCLE    5
  SDIIS (wt  0.000):  0.0260  0.6740  0.3001
 A-DIIS (wt  1.000):  0.0000  0.5764  0.4236
  DIIS coefficients:  0.0000  0.5764  0.4236
 SCF Error: norm([F,P])=      0.416615089426, max([F,P])=      0.232643669786
 orbitals (Q,E):
 ---------------
 S :1...2            ( 2.00    -0.8764)  ( 0.00     0.9107)
 P :1...2            ( 4.00    -0.3280)  ( 0.00     0.3557)
 D :1...1            ( 0.00     1.0703)

 CYCLE    6
  SDIIS (wt  0.942):  0.0005  0.0237 -0.0203  0.9960
 A-DIIS (wt  0.058):  0.0000  0.0000  0.0000  1.0000
  DIIS coefficients:  0.0005  0.0224 -0.0191  0.9962
 SCF Error: norm([F,P])=      0.013723272809, max([F,P])=      0.006719036732
 orbitals (Q,E):
 ---------------
 S :1...2            ( 2.00    -0.8830)  ( 0.00     0.9058)
 P :1...2            ( 4.00    -0.3343)  ( 0.00     0.3521)
 D :1...1            ( 0.00     1.0657)

 CYCLE    7
  SDIIS (wt  1.000): -0.0000  0.0016  0.0023  0.0424  0.9537
  DIIS coefficients: -0.0000  0.0016  0.0023  0.0424  0.9537
 SCF Error: norm([F,P])=      0.001103645928, max([F,P])=      0.000634039171
 orbitals (Q,E):
 ---------------
 S :1...2            ( 2.00    -0.8827)  ( 0.00     0.9060)
 P :1...2            ( 4.00    -0.3340)  ( 0.00     0.3523)
 D :1...1            ( 0.00     1.0659)

 CYCLE    8
  SDIIS (wt  1.000): -0.0000 -0.0001  0.0000 -0.0032  0.0268  0.9765
  DIIS coefficients: -0.0000 -0.0001  0.0000 -0.0032  0.0268  0.9765
 SCF Error: norm([F,P])=      0.000035919805, max([F,P])=      0.000020263970
 orbitals (Q,E):
 ---------------
 S :1...2            ( 2.00    -0.8827)  ( 0.00     0.9060)
 P :1...2            ( 4.00    -0.3340)  ( 0.00     0.3522)
 D :1...1            ( 0.00     1.0659)

 CYCLE    9
  SDIIS (wt  1.000): -0.0000  0.0008  0.0188  0.9804
  DIIS coefficients: -0.0000  0.0008  0.0188  0.9804
 SCF Error: norm([F,P])=      0.000000326384, max([F,P])=      0.000000183924
 orbitals (Q,E):
 ---------------
 S :1...2            ( 2.00    -0.8827)  ( 0.00     0.9060)
 P :1...2            ( 4.00    -0.3340)  ( 0.00     0.3522)
 D :1...1            ( 0.00     1.0659)

 CYCLE   10
  SDIIS (wt  1.000):  0.0000  0.0003  0.9996
  DIIS coefficients:  0.0000  0.0003  0.9996
 SCF Error: norm([F,P])=      0.000000000559, max([F,P])=      0.000000000306
 orbitals (Q,E):
 ---------------
 S :1...2            ( 2.00    -0.8827)  ( 0.00     0.9060)
 P :1...2            ( 4.00    -0.3340)  ( 0.00     0.3522)
 D :1...1            ( 0.00     1.0659)

 SCF CONVERGED

 CYCLE   11
1
 ***************************************************************************************************



                                                *******************
                                                *  R E S U L T S  *
                                                *******************
  
 *** Using FIT density in Focky
  SDIIS (wt  1.000): -0.0000  0.0143  0.9857
  DIIS coefficients: -0.0000  0.0143  0.9857
 SCF Error: norm([F,P])=      0.000000000010, max([F,P])=      0.000000000006

 Scaled ZORA Orbital Energies, per Irrep and Spin:
 =================================================
                        Occup              E (au)              E (eV)       Diff (eV) with prev. cycle
                        -----      --------------------        ------       --------------------------
 S
               1        2.000     -0.88272313143209E+00       -24.020              -9.28E-11
               2        0.000      0.90601345014671E+00        24.654
               3        0.000      0.29578810816937E+02       804.880
 P
               1        4.000     -0.33400585272070E+00        -9.089              -8.94E-11
               2        0.000      0.35224911365993E+00         9.585
               3        0.000      0.38342927625315E+01       104.336
 D
               1        0.000      0.10658965783141E+01        29.005


 Partially Occupied:
               1 P                -0.33400585272070E+00
  
 HOMO :        1 S                -0.88272313143209E+00
 LUMO :        2 P                 0.35224911365993E+00
  


 Orbital Energies, all Irreps
 ========================================

 Irrep        no.  (spin)   Occup              E (au)                E (eV)
 ---------------------------------------------------------------------------
 S             1             2.00       -0.88272313143209E+00       -24.0201
 P             1             4.00       -0.33400585272070E+00        -9.0888
 P             2             0.00        0.35224911365993E+00         9.5852
 S             2             0.00        0.90601345014671E+00        24.6539
 D             1             0.00        0.10658965783141E+01        29.0045
 P             3             0.00        0.38342927625315E+01       104.3364
 S             3             0.00        0.29578810816937E+02       804.8804


 Scaled ZORA Orbital Energies of the Core Orbitals:
 ==================================================

 (Note that the atoms are grouped by atomtype, see the labels, and may hence NOT be in input order)

 AtomType  Orbital  Atom                   E (au)                        E (eV)
 --------  -------  ----           --------------------        ----------------
 O           1S        1          -0.18925919758629E+02                -515.000



 =======================================
 M U L L I K E N   P O P U L A T I O N S
 =======================================
  
 The survey below gives for each atom:
 a) the total charge (Z minus electrons)
 b) the net spin polarization (nr of electrons spin-A minus spin-B)
 c) for each spin the atomic electron valence density (integrated) per L-value.

 Atom              Charge    Spin density          S         P         D         F
 ----              ------    ------------       ------    ------    ------    ------
 1 O              -0.0000                       2.0000    4.0000    0.0000    0.0000

 Populations of individual BAS functions
 ----------------------------------------
 1 O            0.0005  0.9226  1.0966 -0.0196  0.3346  0.3346  0.3346  0.7512  0.7512  0.7512
                0.2476  0.2476  0.2476  0.0000  0.0000  0.0000  0.0000  0.0000  0.0000

 Gross Charges per Atom (Z minus electrons)
 ==========================================
            -0.0000
 Net Total: -0.00000000



 =======================================================================
 Electrostatic potential at the Nuclei due to electrons and other nuclei
 =======================================================================
  
         Atom                  Potential
         ----                  ---------
     1)   O                  22.20265662
 
 
 ========================
 No memory problems found
 ========================
 
 Maximum number of active allocate calls:         389
 
 *******************************************************************************

                             A D F   E X I T
 NORMAL TERMINATION



 =================
 Timing Statistics
 =================
  
 Total Used :                     CPU=        0.44      System=        0.03     Elapsed=        0.50

 Calls  Section                     ( Mean, Percentage )
 ---------------------------------------------------------------------------------------------------
     3  ><      ................      0.00    0.00             0.00    0.00             0.00    0.93
     1  INIT    ................      0.08   17.43             0.00    0.00             0.08   16.17
     1  GEOMET  ................      0.02    3.67             0.00   12.50             0.02    4.84
     1  INPUTA  ................      0.00    0.00             0.00   12.50             0.00    0.71
     1  MAINSY  ................      0.00    0.92             0.01   25.00             0.01    2.90
     1  SYMFIT  ................      0.00    0.00             0.00   12.50             0.00    0.35
     1  CORORT  ................      0.00    0.00             0.00    0.00             0.00    0.33
     1  SYMORB  ................      0.00    0.00             0.00    0.00             0.00    0.18
     1  CLSMAT  ................      0.00    0.00             0.00   12.50             0.01    1.20
     1  ORTHON  ................      0.01    1.83             0.00    0.00             0.01    1.09
     1  GENPT   ................      0.02    3.67             0.00    0.00             0.02    3.09
     1  PTBAS   ................      0.00    0.92             0.00    0.00             0.01    1.14
    11  FOCKY   ................      0.02   55.96             0.00   25.00             0.02   51.29
    11  FOCKTR  ................      0.00    2.75             0.00    0.00             0.00    1.55
    11  SDIIS   ................      0.00    4.59             0.00    0.00             0.00    6.33
     1  COREPS  ................      0.02    3.67             0.00    0.00             0.02    3.62
     1  POPAN   ................      0.01    1.83             0.00    0.00             0.01    1.13
     1  DEBYE   ................      0.00    0.00             0.00    0.00             0.00    0.40
     1  EXIT PROCEDURE .........      0.01    2.75             0.00    0.00             0.01    2.75


 Currently Open Files (EXIT00)
 ====================

 Unit    Access Format  Status   Type       Ident (file)
 -------------------------------------------------------
   3      SEQ    FORM   TRANSP  NORMAL      LOGFILE
                                          ( logfile )

 ***************************************************************************************************
 (LOGFILE)
 <Sep07-2020> <18:17:59>  DIRAC 2019  RunTime: Sep07-2020 18:17:59  Nodes: 1  Procs: 1
 <Sep07-2020> <18:17:59>  NORMAL TERMINATION
 <Sep07-2020> <18:17:59>  END
 <Sep07-2020> <18:17:59>  ADF 2019  RunTime: Sep07-2020 18:17:59  Nodes: 1  Procs: 1
 <Sep07-2020> <18:17:59>  Hydrogen (TZP)
 <Sep07-2020> <18:17:59>  RunType   : CREATE
 <Sep07-2020> <18:17:59>  Net Charge: 0 (Nuclei minus Electrons)
 <Sep07-2020> <18:17:59>  Symmetry  : ATOM
  Coordinates
    Atom         X           Y           Z   (Angstrom)
    1.H         0.000000    0.000000    0.000000
 <Sep07-2020> <18:17:59>  >>>> CORORT
 <Sep07-2020> <18:17:59>  >>>> CLSMAT
 <Sep07-2020> <18:17:59>  >>>> ORTHON
 <Sep07-2020> <18:17:59>  >>>> GENPT
 <Sep07-2020> <18:17:59>  Block Length=  64
 <Sep07-2020> <18:17:59>  >>>> PTBAS
 <Sep07-2020> <18:17:59>  >>>> CYCLE
 <Sep07-2020> <18:17:59>              |Error|         MaxErr       Wt(A-DIIS)
 <Sep07-2020> <18:17:59>      1      0.00000000      0.00000000
 <Sep07-2020> <18:17:59>      2      0.03153787      0.03011049
 <Sep07-2020> <18:17:59>      3      0.00861799      0.00834303    100.0
 <Sep07-2020> <18:17:59>      4      0.00173235      0.00171862      0.7
 <Sep07-2020> <18:17:59>      5      0.00004367      0.00003977      0.0
 <Sep07-2020> <18:17:59>      6      0.00000238      0.00000216      0.0
 <Sep07-2020> <18:17:59>      7      0.00000001      0.00000001      0.0
 <Sep07-2020> <18:17:59>  SCF converged
 <Sep07-2020> <18:17:59>      8      0.00000000      0.00000000      0.0
 <Sep07-2020> <18:17:59>  >>>> POPAN
 <Sep07-2020> <18:17:59>  >>>> DEBYE
 <Sep07-2020> <18:17:59>  NORMAL TERMINATION
 <Sep07-2020> <18:17:59>  END
 <Sep07-2020> <18:17:59>  DIRAC 2019  RunTime: Sep07-2020 18:17:59  Nodes: 1  Procs: 1
 <Sep07-2020> <18:17:59>  NORMAL TERMINATION
 <Sep07-2020> <18:17:59>  END
 <Sep07-2020> <18:17:59>  ADF 2019  RunTime: Sep07-2020 18:17:59  Nodes: 1  Procs: 1
 <Sep07-2020> <18:17:59>  Oxygen (TZP, 1s frozen)
 <Sep07-2020> <18:17:59>  RunType   : CREATE
 <Sep07-2020> <18:17:59>  Net Charge: 0 (Nuclei minus Electrons)
 <Sep07-2020> <18:17:59>  Symmetry  : ATOM
  Coordinates
    Atom         X           Y           Z   (Angstrom)
    1.O         0.000000    0.000000    0.000000
 <Sep07-2020> <18:18:00>  >>>> CORORT
 <Sep07-2020> <18:18:00>  >>>> CLSMAT
 <Sep07-2020> <18:18:00>  >>>> ORTHON
 <Sep07-2020> <18:18:00>  >>>> GENPT
 <Sep07-2020> <18:18:00>  Block Length=  68
 <Sep07-2020> <18:18:00>  >>>> PTBAS
 <Sep07-2020> <18:18:00>  >>>> CYCLE
 <Sep07-2020> <18:18:00>              |Error|         MaxErr       Wt(A-DIIS)
 <Sep07-2020> <18:18:00>      1      0.00000000      0.00000000
 <Sep07-2020> <18:18:00>      2      4.56299337      2.52897111
 <Sep07-2020> <18:18:00>      3      2.72315525      1.79866705    100.0
 <Sep07-2020> <18:18:00>      4      0.28902714      0.13064862    100.0
 <Sep07-2020> <18:18:00>      5      0.41661509      0.23264367    100.0
 <Sep07-2020> <18:18:00>      6      0.01372327      0.00671904      5.8
 <Sep07-2020> <18:18:00>      7      0.00110365      0.00063404      0.0
 <Sep07-2020> <18:18:00>      8      0.00003592      0.00002026      0.0
 <Sep07-2020> <18:18:00>      9      0.00000033      0.00000018      0.0
 <Sep07-2020> <18:18:00>     10      0.00000000      0.00000000      0.0
 <Sep07-2020> <18:18:00>  SCF converged
 <Sep07-2020> <18:18:00>     11      0.00000000      0.00000000      0.0
 <Sep07-2020> <18:18:00>  >>>> POPAN
 <Sep07-2020> <18:18:00>  >>>> DEBYE
 <Sep07-2020> <18:18:00>  NORMAL TERMINATION
 <Sep07-2020> <18:18:00>  END

 *******************************************************************************
 *                                                                             *
 *  -------------------------------------                                      *
 *   Amsterdam Density Functional  (ADF)         2019                          *
 *  -------------------------------------                                      *
 *                                               r79301 2019-11-09             *
 *                                                                             *
 *                                                                             *
 *                            =====================                            *
 *                            |                   |                            *
 *                            |     D I R A C     |                            *
 *                            |                   |                            *
 *                            =====================                            *
 *                                                                             *
 *                                                                             *
 *   Online information and documentation:  https://www.scm.com/support/       *
 *   E-mail:  support@scm.com   info@scm.com                                   *
 *                                                                             *
 *   Scientific publications using ADF results must be properly referenced     *
 *   See the User Manuals (or the web site) for recommended citations          *
 *   The terms and conditions of the End User License Agreement apply to       *
 *   the use of ADF, https://www.scm.com/license-terms/                        *
 *                                                                             *
 **********************  x86_64_linux_intel / intelmpi  ************************
 
 
 
  
 DIRAC 2019  RunTime: Sep07-2020 18:18:00  Nodes: 1  Procs: 1

 Temporary files are created in /scratch/kid_0.1472513194 (0x58465342)

1
 TUNGSTEN ATOM 4d CORE RELATIVISTIC, Point Nuc, A and c from 
 N J RN H ZN XION ANUC CLIGHT
 5000   22100.00000000197.36710137 74.00000000  0.00000000  183.950932  0.1370360E+03
  PH   PHI     EPS        DEL        DELRVR
  0.30  0.30     2500.00  0.00001000  0.00001000
 IDIRC  NC1  NDEBU NPRIN  IPUN IRCOR IWCOR
   1   300     0     0     0     0    14
   XALPHA      XLATTER      RNUC
  0.70000000  0.00000000  0.00000000 Point Charge
   XN   XL   XJ      XE          XZ      XDELL
  1.0  0.0  0.5   -2600.000       2.000     0.00000
  2.0  0.0  0.5    -425.000       2.000     0.00000
  2.0  1.0  0.5    -425.000       2.000     0.00000
  2.0  1.0  1.5    -425.000       4.000     0.00000
  3.0  0.0  0.5    -100.000       2.000     0.00000
  3.0  1.0  0.5    -100.000       2.000     0.00000
  3.0  1.0  1.5    -100.000       4.000     0.00000
  3.0  2.0  1.5     -80.000       4.000     0.00000
  3.0  2.0  2.5     -80.000       6.000     0.00000
  4.0  0.0  0.5     -22.000       2.000     0.00000
  4.0  1.0  0.5     -20.000       2.000     0.00000
  4.0  1.0  1.5     -20.000       4.000     0.00000
  4.0  2.0  1.5     -11.000       4.000     0.00000
  4.0  2.0  2.5     -11.000       6.000     0.00000
  4.0  3.0  2.5      -1.000       6.000     0.00000
  4.0  3.0  3.5      -1.000       8.000     0.00000
  5.0  0.0  0.5      -3.000       2.000     0.00000
  5.0  1.0  0.5      -2.200       2.000     0.00000
  5.0  1.0  1.5      -2.200       4.000     0.00000
  5.0  2.0  1.5      -0.500       4.000     0.00000
  5.0  2.0  2.5      -0.500       0.000     0.00000
  6.0  0.0  0.5      -0.200       2.000     0.00000
 ICORP=  0  NPCL=  0  DEMP=0.00  PEPS=0.000000
 R(1)=  0.1000000E-08 D=  0.1005080E+01 RNUC=  0.0000000E+00
 converged at cycle   63  DENSITY AVERAGING    0.1536
  MAXIMUM ERROR IN R.V(R) IS   0.78838062E-05
 Q,EY,EV,EZ,ESUM,ETOT,RHO  0.740000E+02 -0.431420E+03 -0.281568E+05 -0.403919E+05 -0.993885E+04 -0.161643E+05  0.726391E-09


 DIRAC CALCULATION
1                    TUNGSTEN ATOM 4d CORE RELATIVISTIC, Point Nuc, A and c from libtc


 EXCHANGE COEFFICIENT=  0.7000000           TAIL CORRECTION=  0.           NUCLEAR RADIUS=  0.000E+00
0                       ORBITAL    N    L    J     ELECTRONS     EIGENVALUE                DELTA OF EIGENV.

                          1S1/2  1.0  0.0  0.5     2.000       -0.2549514E+04                 0.5980248E-04
                          2S1/2  2.0  0.0  0.5     2.000       -0.4399118E+03                 0.5052420E-04
                          2P1/2  2.0  1.0  0.5     2.000       -0.4208427E+03                 0.5265062E-04
                          2P3/2  2.0  1.0  1.5     4.000       -0.3711192E+03                 0.5139441E-04
                          3S1/2  3.0  0.0  0.5     2.000       -0.1012881E+03                 0.3437035E-04
                          3P1/2  3.0  1.0  0.5     2.000       -0.9277148E+02                 0.3553128E-04
                          3P3/2  3.0  1.0  1.5     4.000       -0.8201733E+02                 0.3404634E-04
                          3D3/2  3.0  2.0  1.5     4.000       -0.6762803E+02                 0.3680712E-04
                          3D5/2  3.0  2.0  2.5     6.000       -0.6528623E+02                 0.3629511E-04
                          4S1/2  4.0  0.0  0.5     2.000       -0.2084139E+02                 0.1939427E-04
                          4P1/2  4.0  1.0  0.5     2.000       -0.1730737E+02                 0.1933978E-04
                          4P3/2  4.0  1.0  1.5     4.000       -0.1480597E+02                 0.1810922E-04
                          4D3/2  4.0  2.0  1.5     4.000       -0.8989319E+01                 0.1779394E-04
                          4D5/2  4.0  2.0  2.5     6.000       -0.8528007E+01                 0.1741170E-04
                          4F5/2  4.0  3.0  2.5     6.000       -0.1237480E+01                 0.1544089E-04
                          4F7/2  4.0  3.0  3.5     8.000       -0.1154634E+01                 0.1522033E-04
                          5S1/2  5.0  0.0  0.5     2.000       -0.2863514E+01                 0.7979521E-05
                          5P1/2  5.0  1.0  0.5     2.000       -0.1813289E+01                 0.7246225E-05
                          5P3/2  5.0  1.0  1.5     4.000       -0.1448762E+01                 0.6602120E-05
                          5D3/2  5.0  2.0  1.5     4.000       -0.1486933E+00                 0.3973088E-05
                          5D5/2  5.0  2.0  2.5     0.000       -0.1223153E+00                 0.3735081E-05
                          6S1/2  6.0  0.0  0.5     2.000       -0.1847434E+00                 0.1808440E-05


                                        NUCLEAR CHARGE=   74.000000
                            INTEGRAL OF CHARGE DENSITY=   74.000000
                           SUM OF THE ORBITAL ENERGIES=  -9938.8529
                                          TOTAL ENERGY= -16164.2530
                                        KINETIC ENERGY=  18217.9700
                             NUCLEAR ATTRACTION ENERGY= -40391.9132
                             ELECTRON REPULSION ENERGY=   6333.2551
                                       EXCHANGE ENERGY=   -323.5649

 *******************************************************************************

                             D I R A C   E X I T
 NORMAL TERMINATION



 =================
 Timing Statistics
 =================
  
 Total Used :                     CPU=        0.68      System=        0.00     Elapsed=        0.70

 Calls  Section                     ( Mean, Percentage )
 ---------------------------------------------------------------------------------------------------
     2  ><      ................      0.00    0.00             0.00    0.00             0.00    0.00
     1  EXIT PROCEDURE .........      0.68  100.00             0.00  100.00             0.70  100.00


 Currently Open Files (EXIT00)
 ====================

 Unit    Access Format  Status   Type       Ident (file)
 -------------------------------------------------------
   3      SEQ    FORM   TRANSP  NORMAL      LOGFILE
                                          ( logfile )
 
Create W   file=TZP-W.4d
XC
  GGA PBE
End
relativistic ZORA
Corepotentials t12.rel
End

 *******************************************************************************
 *                                                                             *
 *  -------------------------------------                                      *
 *   Amsterdam Density Functional  (ADF)         2019                          *
 *  -------------------------------------                                      *
 *                                               r79301 2019-11-09             *
 *                                                                             *
 *                                                                             *
 *                              =================                              *
 *                              |               |                              *
 *                              |     A D F     |                              *
 *                              |               |                              *
 *                              =================                              *
 *                                                                             *
 *                                                                             *
 *   Online information and documentation:  https://www.scm.com/support/       *
 *   E-mail:  support@scm.com   info@scm.com                                   *
 *                                                                             *
 *   Scientific publications using ADF results must be properly referenced     *
 *   See the User Manuals (or the web site) for recommended citations          *
 *   The terms and conditions of the End User License Agreement apply to       *
 *   the use of ADF, https://www.scm.com/license-terms/                        *
 *                                                                             *
 **********************  x86_64_linux_intel / intelmpi  ************************
 
 
 
  
 ADF 2019  RunTime: Sep07-2020 18:18:01  Nodes: 1  Procs: 1

 Temporary files are created in /scratch/kid_0.509912967 (0x58465342)

 Tungsten (TZP, 4d frozen)



 ===========================
 A T T A C H E D   F I L E S
 ===========================
  
 CREATE - Data File:    TZP-W.4d
                        Tungsten (TZP, 4d frozen)
 Core Potentials:
         file : t12.rel



 ===============================
 M O D E L   P A R A M E T E R S
 ===============================
  
 DENSITY FUNCTIONAL POTENTIAL (scf)
    LDA:                               PW92                                    == Not Default ==
    Gradient Corrections:              PBEc PBEx                               == Not Default ==

 SPIN  (restricted / unrestr.)
    Molecule:                          Restricted                               

 OTHER ASPECTS
    Relativistic Corrections:          scalar (ZORA,MAPA)                      == Not Default ==

    Nuclear Charge Density Model:      Point Charge Nuclei                      
    Core Treatment:                    Frozen Orbital(s)                        

    Hyperfine or Zeeman Interaction:   ---                                      



 =====================================
 S Y M M E T R Y ,   E L E C T R O N S
 =====================================
  
 Symmetry: ATOM

 Irreducible Representations, including subspecies
 -------------------------------------------------
 S
 P:x  P:y  P:z
 D:z2  D:x2-y2  D:xy  D:xz  D:yz
 F:z3  F:z  F:xyz  F:z2x  F:z2y  F:x  F:y


 Configuration of Valence Electrons
 ==================================

          Occupation Numbers
          -------------------------------------------------
 S        2*2
 P        6
 D        4
 F        14
          -------------------------------------------------

 Total:   28

 Net Charge: 0 (Nuclei minus Electrons)

 Preset values for MO occupations will be applied through SCF cycle no. 1000000
 Thereafter, the program will assign electrons to MOs that are spatially
 similar to the occupied MOs in a "reference" cycle ("KeepOrbitals").
 The reference cycle is always the PREVIOUS cycle: it will evolve with
 the SCF procedure.



 ================================
 (Slater-type)  F U N C T I O N S  ***  (Basis and Fit)  ***
 ================================
  

 Atom Type    1  (W)
 ==============

 Valence Basis Sets:  25
 -----------------------
   1 S   52.000000
   2 S   33.250000
   3 S   19.100000
   4 S   11.650000
   2 P   36.850000
   3 P   16.500000
   4 P   11.550000
   3 D   20.100000
   4 D   10.300000
   1 S  163.900000
   5 S    6.050000
   5 S    3.950000
   6 S    2.850000
   6 S    1.800000
   6 S    1.140000
   5 P    5.900000
   5 P    4.000000
   5 P    2.700000
   5 D    4.150000
   5 D    2.250000
   5 D    1.200000
   4 F   13.550000
   4 F    7.050000
   4 F    3.550000
   6 P    1.800000

 Frozen Core Shells
 ------------------
    S:  4
    P:  3
    D:  2


 BAS: List of all Elementary Cartesian Basis Functions
 =====================================================

 The numbering in the list below (to the right of the function characteristics) is referred
 to in print-outs of MO eigenvectors and Mulliken populations in the BAS representation
 (as contrasted to the SFO representation).

 Notes:
 1. The functions are characterized by a polynomial prefactor (powers of x,y,z and r) and
    an exponential decay factor alpha.
 2. Since the basis sets are specific for an atom TYPE, the individual functions occur on
    all atoms of that type.
 3. The word 'Core' in the left margin signals that it is a Core Function (CF) : not a
    degree of freedom in the valence set, but only used to ensure orthogonalization of
    the other valence basis functions on the frozen Core Orbitals.


 (power of) X  Y  Z  R     Alpha  on Atom
            ==========     =====     ==========

 W                                    1
                                  ---------------------------------------------------------------------------
    Core    0  0  0  0    52.000      1
    Core    0  0  0  1    33.250      2
    Core    0  0  0  2    19.100      3
    Core    0  0  0  3    11.650      4
    Core    1  0  0  0    36.850      5
    Core    0  1  0  0    36.850      6
    Core    0  0  1  0    36.850      7
    Core    1  0  0  1    16.500      8
    Core    0  1  0  1    16.500      9
    Core    0  0  1  1    16.500     10
    Core    1  0  0  2    11.550     11
    Core    0  1  0  2    11.550     12
    Core    0  0  1  2    11.550     13
    Core    2  0  0  0    20.100     14
    Core    1  1  0  0    20.100     15
    Core    1  0  1  0    20.100     16
    Core    0  2  0  0    20.100     17
    Core    0  1  1  0    20.100     18
    Core    0  0  2  0    20.100     19
    Core    2  0  0  1    10.300     20
    Core    1  1  0  1    10.300     21
    Core    1  0  1  1    10.300     22
    Core    0  2  0  1    10.300     23
    Core    0  1  1  1    10.300     24
    Core    0  0  2  1    10.300     25
            0  0  0  0   163.900     26
            0  0  0  4     6.050     27
            0  0  0  4     3.950     28
            0  0  0  5     2.850     29
            0  0  0  5     1.800     30
            0  0  0  5     1.140     31
            1  0  0  3     5.900     32
            0  1  0  3     5.900     33
            0  0  1  3     5.900     34
            1  0  0  3     4.000     35
            0  1  0  3     4.000     36
            0  0  1  3     4.000     37
            1  0  0  3     2.700     38
            0  1  0  3     2.700     39
            0  0  1  3     2.700     40
            2  0  0  2     4.150     41
            1  1  0  2     4.150     42
            1  0  1  2     4.150     43
            0  2  0  2     4.150     44
            0  1  1  2     4.150     45
            0  0  2  2     4.150     46
            2  0  0  2     2.250     47
            1  1  0  2     2.250     48
            1  0  1  2     2.250     49
            0  2  0  2     2.250     50
            0  1  1  2     2.250     51
            0  0  2  2     2.250     52
            2  0  0  2     1.200     53
            1  1  0  2     1.200     54
            1  0  1  2     1.200     55
            0  2  0  2     1.200     56
            0  1  1  2     1.200     57
            0  0  2  2     1.200     58
            3  0  0  0    13.550     59
            2  1  0  0    13.550     60
            2  0  1  0    13.550     61
            1  2  0  0    13.550     62
            1  1  1  0    13.550     63
            1  0  2  0    13.550     64
            0  3  0  0    13.550     65
            0  2  1  0    13.550     66
            0  1  2  0    13.550     67
            0  0  3  0    13.550     68
            3  0  0  0     7.050     69
            2  1  0  0     7.050     70
            2  0  1  0     7.050     71
            1  2  0  0     7.050     72
            1  1  1  0     7.050     73
            1  0  2  0     7.050     74
            0  3  0  0     7.050     75
            0  2  1  0     7.050     76
            0  1  2  0     7.050     77
            0  0  3  0     7.050     78
            3  0  0  0     3.550     79
            2  1  0  0     3.550     80
            2  0  1  0     3.550     81
            1  2  0  0     3.550     82
            1  1  1  0     3.550     83
            1  0  2  0     3.550     84
            0  3  0  0     3.550     85
            0  2  1  0     3.550     86
            0  1  2  0     3.550     87
            0  0  3  0     3.550     88
            1  0  0  4     1.800     89
            0  1  0  4     1.800     90
            0  0  1  4     1.800     91

 Total number of charge fitting functions (nprimf)       329
 Total number of Cartesian basis functions (naos)         91
 Total number of Cartesian core functions  (ncos)         25



 BAS: List of all Elementary Cartesian Basis Functions
 =====================================================

 The numbering in the list below (to the right of the function characteristics) is referred
 to in print-outs of MO eigenvectors and Mulliken populations in the BAS representation
 (as contrasted to the SFO representation).

 Notes:
 1. The functions are characterized by a polynomial prefactor (powers of x,y,z and r) and
    an exponential decay factor alpha.
 2. Since the basis sets are specific for an atom TYPE, the individual functions occur on
    all atoms of that type.
 3. The word 'Core' in the left margin signals that it is a Core Function (CF) : not a
    degree of freedom in the valence set, but only used to ensure orthogonalization of
    the other valence basis functions on the frozen Core Orbitals.


 (power of) X  Y  Z  R     Alpha  on Atom
            ==========     =====     ==========

 W                                    1
                                  ---------------------------------------------------------------------------
    Core    0  0  0  0    52.000      1
    Core    0  0  0  1    33.250      2
    Core    0  0  0  2    19.100      3
    Core    0  0  0  3    11.650      4
    Core    1  0  0  0    36.850      5
    Core    0  1  0  0    36.850      6
    Core    0  0  1  0    36.850      7
    Core    1  0  0  1    16.500      8
    Core    0  1  0  1    16.500      9
    Core    0  0  1  1    16.500     10
    Core    1  0  0  2    11.550     11
    Core    0  1  0  2    11.550     12
    Core    0  0  1  2    11.550     13
    Core    2  0  0  0    20.100     14
    Core    1  1  0  0    20.100     15
    Core    1  0  1  0    20.100     16
    Core    0  2  0  0    20.100     17
    Core    0  1  1  0    20.100     18
    Core    0  0  2  0    20.100     19
    Core    2  0  0  1    10.300     20
    Core    1  1  0  1    10.300     21
    Core    1  0  1  1    10.300     22
    Core    0  2  0  1    10.300     23
    Core    0  1  1  1    10.300     24
    Core    0  0  2  1    10.300     25
            0  0  0  0   163.900     26
            0  0  0  4     6.050     27
            0  0  0  4     3.950     28
            0  0  0  5     2.850     29
            0  0  0  5     1.800     30
            0  0  0  5     1.140     31
            1  0  0  3     5.900     32
            0  1  0  3     5.900     33
            0  0  1  3     5.900     34
            1  0  0  3     4.000     35
            0  1  0  3     4.000     36
            0  0  1  3     4.000     37
            1  0  0  3     2.700     38
            0  1  0  3     2.700     39
            0  0  1  3     2.700     40
            2  0  0  2     4.150     41
            1  1  0  2     4.150     42
            1  0  1  2     4.150     43
            0  2  0  2     4.150     44
            0  1  1  2     4.150     45
            0  0  2  2     4.150     46
            2  0  0  2     2.250     47
            1  1  0  2     2.250     48
            1  0  1  2     2.250     49
            0  2  0  2     2.250     50
            0  1  1  2     2.250     51
            0  0  2  2     2.250     52
            2  0  0  2     1.200     53
            1  1  0  2     1.200     54
            1  0  1  2     1.200     55
            0  2  0  2     1.200     56
            0  1  1  2     1.200     57
            0  0  2  2     1.200     58
            3  0  0  0    13.550     59
            2  1  0  0    13.550     60
            2  0  1  0    13.550     61
            1  2  0  0    13.550     62
            1  1  1  0    13.550     63
            1  0  2  0    13.550     64
            0  3  0  0    13.550     65
            0  2  1  0    13.550     66
            0  1  2  0    13.550     67
            0  0  3  0    13.550     68
            3  0  0  0     7.050     69
            2  1  0  0     7.050     70
            2  0  1  0     7.050     71
            1  2  0  0     7.050     72
            1  1  1  0     7.050     73
            1  0  2  0     7.050     74
            0  3  0  0     7.050     75
            0  2  1  0     7.050     76
            0  1  2  0     7.050     77
            0  0  3  0     7.050     78
            3  0  0  0     3.550     79
            2  1  0  0     3.550     80
            2  0  1  0     3.550     81
            1  2  0  0     3.550     82
            1  1  1  0     3.550     83
[...]
    9.O         4.633019    8.789390   14.003889
   10.O         1.805416    8.606636   13.587018
   11.O         3.481413    9.776399   11.578983
   12.O         3.855500    3.620749   12.066951
   13.O         4.296422    0.500912   12.267744
   14.H         4.175450    0.121321   13.164518
 <Sep07-2020> <19:05:39>  >>>> CORORT
 <Sep07-2020> <19:05:39>  >>>> CLSMAT
 <Sep07-2020> <19:05:39>  >>>> ORTHON
 <Sep07-2020> <19:05:39>  >>>> GENPT
 <Sep07-2020> <19:05:39>  Block Length= 128
 <Sep07-2020> <19:05:39>  >>>> PTBAS
 <Sep07-2020> <19:05:40>  combining surface points...
 <Sep07-2020> <19:05:40>  combining surface points...
 <Sep07-2020> <19:05:40>  combining surface points...
 <Sep07-2020> <19:05:40>  >>>> CYCLE
 <Sep07-2020> <19:05:44>              |Error|         MaxErr       Wt(A-DIIS)
 <Sep07-2020> <19:05:44>      1      0.16844291      0.02372691
 <Sep07-2020> <19:05:46>      2      0.63903937      0.10963691    100.0
 <Sep07-2020> <19:05:47>      3      0.16483863      0.01699840    100.0
 <Sep07-2020> <19:05:49>      4      0.08894533      0.01486324     14.0
 <Sep07-2020> <19:05:51>      5      0.14375296      0.02394459    100.0
 <Sep07-2020> <19:05:53>      6      0.18980251      0.02717456    100.0
 <Sep07-2020> <19:05:55>      7      0.13392955      0.01385414    100.0
 <Sep07-2020> <19:05:56>      8      0.04833551      0.00766112      6.7
 <Sep07-2020> <19:05:58>      9      0.00814199      0.00142558      0.4
 <Sep07-2020> <19:06:00>     10      0.00333628      0.00063540      0.0
 <Sep07-2020> <19:06:01>     11      0.00070895      0.00012190      0.0
 <Sep07-2020> <19:06:03>     12      0.00026235      0.00003876      0.0
 <Sep07-2020> <19:06:05>     13      0.00015304      0.00002496      0.0
 <Sep07-2020> <19:06:06>     14      0.00011922      0.00002054      0.0
 <Sep07-2020> <19:06:08>     15      0.00003263      0.00000490      0.0
 <Sep07-2020> <19:06:09>     16      0.00001271      0.00000163      0.0
 <Sep07-2020> <19:06:11>     17      0.00000429      0.00000068      0.0
 <Sep07-2020> <19:06:11>  SCF converged
 <Sep07-2020> <19:06:12>     18      0.00000321      0.00000049      0.0
 <Sep07-2020> <19:06:13>  >>>> TOTEN
 <Sep07-2020> <19:06:14>  >>>> POPAN
 <Sep07-2020> <19:06:14>  >>>> DEBYE
 <Sep07-2020> <19:06:14>  >>>> ENGRAD
 <Sep07-2020> <19:06:17>  Old frequency:    -37.49796, new:     24.99839
 <Sep07-2020> <19:06:17>  Geometry symmetry displacement    7 out of   12
  Coordinates in Geometry Cycle 30
    Atom         X           Y           Z   (Angstrom)
    1.W         3.135559    1.893519   11.744392
    2.W         4.572350    5.263711   11.423331
    3.W         3.379448    8.505141   12.797512
    4.O         4.643941    5.245011    9.690204
    5.O         6.204115    5.411175   11.991840
    6.O         1.619723    1.766435   12.569705
    7.O         2.838494    1.676527   10.051681
    8.O         3.580613    6.743160   11.957482
    9.O         4.633090    8.788201   14.003929
   10.O         1.805418    8.606259   13.587191
   11.O         3.481493    9.776687   11.579621
   12.O         3.855953    3.620718   12.066309
   13.O         4.296009    0.500772   12.268023
   14.H         4.175700    0.122237   13.165339
 <Sep07-2020> <19:06:17>  >>>> CORORT
 <Sep07-2020> <19:06:18>  >>>> CLSMAT
 <Sep07-2020> <19:06:18>  >>>> ORTHON
 <Sep07-2020> <19:06:18>  >>>> GENPT
 <Sep07-2020> <19:06:18>  Block Length= 128
 <Sep07-2020> <19:06:18>  >>>> PTBAS
 <Sep07-2020> <19:06:19>  combining surface points...
 <Sep07-2020> <19:06:19>  combining surface points...
 <Sep07-2020> <19:06:19>  combining surface points...
 <Sep07-2020> <19:06:19>  >>>> CYCLE
 <Sep07-2020> <19:06:22>              |Error|         MaxErr       Wt(A-DIIS)
 <Sep07-2020> <19:06:22>      1      0.16130041      0.01989724
 <Sep07-2020> <19:06:24>      2      0.63934969      0.10959604    100.0
 <Sep07-2020> <19:06:26>      3      0.16506660      0.01706545    100.0
 <Sep07-2020> <19:06:28>      4      0.08893140      0.01483598     14.0
 <Sep07-2020> <19:06:30>      5      0.14374403      0.02391282    100.0
 <Sep07-2020> <19:06:32>      6      0.19064846      0.02730359    100.0
 <Sep07-2020> <19:06:33>      7      0.13338300      0.01377014    100.0
 <Sep07-2020> <19:06:35>      8      0.04954607      0.00782978      6.9
 <Sep07-2020> <19:06:37>      9      0.00817623      0.00143297      0.4
 <Sep07-2020> <19:06:39>     10      0.00333703      0.00063688      0.0
 <Sep07-2020> <19:06:40>     11      0.00071059      0.00012215      0.0
 <Sep07-2020> <19:06:42>     12      0.00026202      0.00003863      0.0
 <Sep07-2020> <19:06:43>     13      0.00015344      0.00002516      0.0
 <Sep07-2020> <19:06:45>     14      0.00011944      0.00002055      0.0
 <Sep07-2020> <19:06:47>     15      0.00003240      0.00000486      0.0
 <Sep07-2020> <19:06:48>     16      0.00001284      0.00000168      0.0
 <Sep07-2020> <19:06:50>     17      0.00000425      0.00000068      0.0
 <Sep07-2020> <19:06:50>  SCF converged
 <Sep07-2020> <19:06:51>     18      0.00000321      0.00000049      0.0
 <Sep07-2020> <19:06:52>  >>>> TOTEN
 <Sep07-2020> <19:06:52>  >>>> POPAN
 <Sep07-2020> <19:06:52>  >>>> DEBYE
 <Sep07-2020> <19:06:53>  >>>> ENGRAD
 <Sep07-2020> <19:06:56>  Geometry symmetry displacement    8 out of   12
  Coordinates in Geometry Cycle 30
    Atom         X           Y           Z   (Angstrom)
    1.W         3.135772    1.893754   11.744348
    2.W         4.572024    5.263362   11.423576
    3.W         3.379566    8.505267   12.797446
    4.O         4.642340    5.243552    9.690411
    5.O         6.204228    5.410927   11.990807
    6.O         1.619201    1.765726   12.568139
    7.O         2.840268    1.678189   10.051174
    8.O         3.580880    6.743272   11.957512
    9.O         4.633415    8.788671   14.003565
   10.O         1.805689    8.606172   13.587459
   11.O         3.481108    9.776727   11.579422
   12.O         3.855751    3.620855   12.068132
   13.O         4.296033    0.500832   12.267890
   14.H         4.173945    0.120179   13.164059
 <Sep07-2020> <19:06:56>  >>>> CORORT
 <Sep07-2020> <19:06:57>  >>>> CLSMAT
 <Sep07-2020> <19:06:57>  >>>> ORTHON
 <Sep07-2020> <19:06:57>  >>>> GENPT
 <Sep07-2020> <19:06:57>  Block Length= 128
 <Sep07-2020> <19:06:57>  >>>> PTBAS
 <Sep07-2020> <19:06:58>  combining surface points...
 <Sep07-2020> <19:06:58>  combining surface points...
 <Sep07-2020> <19:06:58>  combining surface points...
 <Sep07-2020> <19:06:58>  >>>> CYCLE
 <Sep07-2020> <19:07:01>              |Error|         MaxErr       Wt(A-DIIS)
 <Sep07-2020> <19:07:01>      1      0.17044910      0.02911708
 <Sep07-2020> <19:07:03>      2      0.63918710      0.10967762    100.0
 <Sep07-2020> <19:07:05>      3      0.16502420      0.01708050    100.0
 <Sep07-2020> <19:07:07>      4      0.08895788      0.01485968     14.0
 <Sep07-2020> <19:07:09>      5      0.14372445      0.02393928    100.0
 <Sep07-2020> <19:07:11>      6      0.19066129      0.02733996    100.0
 <Sep07-2020> <19:07:12>      7      0.13346920      0.01378235    100.0
 <Sep07-2020> <19:07:14>      8      0.04945810      0.00782025      6.9
 <Sep07-2020> <19:07:16>      9      0.00817491      0.00143172      0.4
 <Sep07-2020> <19:07:18>     10      0.00333616      0.00063701      0.0
 <Sep07-2020> <19:07:19>     11      0.00071047      0.00012218      0.0
 <Sep07-2020> <19:07:21>     12      0.00026230      0.00003857      0.0
 <Sep07-2020> <19:07:23>     13      0.00015336      0.00002509      0.0
 <Sep07-2020> <19:07:24>     14      0.00011928      0.00002052      0.0
 <Sep07-2020> <19:07:26>     15      0.00003247      0.00000488      0.0
 <Sep07-2020> <19:07:27>     16      0.00001287      0.00000171      0.0
 <Sep07-2020> <19:07:29>     17      0.00000425      0.00000067      0.0
 <Sep07-2020> <19:07:29>  SCF converged
 <Sep07-2020> <19:07:30>     18      0.00000322      0.00000049      0.0
 <Sep07-2020> <19:07:31>  >>>> TOTEN
 <Sep07-2020> <19:07:31>  >>>> POPAN
 <Sep07-2020> <19:07:31>  >>>> DEBYE
 <Sep07-2020> <19:07:32>  >>>> ENGRAD
 <Sep07-2020> <19:07:35>  Old frequency:    -32.95445, new:     33.66472
 <Sep07-2020> <19:07:35>  Geometry symmetry displacement    9 out of   12
  Coordinates in Geometry Cycle 30
    Atom         X           Y           Z   (Angstrom)
    1.W         3.135743    1.893653   11.744453
    2.W         4.572073    5.263540   11.423317
    3.W         3.379541    8.505189   12.797536
    4.O         4.642679    5.244145    9.690160
    5.O         6.204170    5.411106   11.990851
    6.O         1.619540    1.766002   12.568990
    7.O         2.839485    1.677387   10.051504
    8.O         3.580721    6.743259   11.957418
    9.O         4.632563    8.787762   14.004712
   10.O         1.805090    8.606632   13.586336
   11.O         3.482619    9.776860   11.579860
   12.O         3.855853    3.620835   12.067341
   13.O         4.296180    0.500882   12.268027
   14.H         4.174964    0.121221   13.164738
 <Sep07-2020> <19:07:35>  >>>> CORORT
 <Sep07-2020> <19:07:36>  >>>> CLSMAT
 <Sep07-2020> <19:07:36>  >>>> ORTHON
 <Sep07-2020> <19:07:36>  >>>> GENPT
 <Sep07-2020> <19:07:36>  Block Length= 128
 <Sep07-2020> <19:07:36>  >>>> PTBAS
 <Sep07-2020> <19:07:37>  combining surface points...
 <Sep07-2020> <19:07:37>  combining surface points...
 <Sep07-2020> <19:07:37>  combining surface points...
 <Sep07-2020> <19:07:37>  >>>> CYCLE
 <Sep07-2020> <19:07:40>              |Error|         MaxErr       Wt(A-DIIS)
 <Sep07-2020> <19:07:40>      1      0.16380896      0.02780383
 <Sep07-2020> <19:07:42>      2      0.63923432      0.10968032    100.0
 <Sep07-2020> <19:07:44>      3      0.16497557      0.01705090    100.0
 <Sep07-2020> <19:07:46>      4      0.08892283      0.01485371     14.0
 <Sep07-2020> <19:07:48>      5      0.14376759      0.02394581    100.0
 <Sep07-2020> <19:07:49>      6      0.19027811      0.02726656    100.0
 <Sep07-2020> <19:07:51>      7      0.13362049      0.01381315    100.0
 <Sep07-2020> <19:07:53>      8      0.04902160      0.00775186      6.8
 <Sep07-2020> <19:07:55>      9      0.00816071      0.00142865      0.4
 <Sep07-2020> <19:07:56>     10      0.00333813      0.00063613      0.0
 <Sep07-2020> <19:07:58>     11      0.00070974      0.00012202      0.0
 <Sep07-2020> <19:08:00>     12      0.00026230      0.00003870      0.0
 <Sep07-2020> <19:08:01>     13      0.00015337      0.00002512      0.0
 <Sep07-2020> <19:08:03>     14      0.00011933      0.00002056      0.0
 <Sep07-2020> <19:08:04>     15      0.00003253      0.00000488      0.0
 <Sep07-2020> <19:08:06>     16      0.00001278      0.00000166      0.0
 <Sep07-2020> <19:08:08>     17      0.00000427      0.00000068      0.0
 <Sep07-2020> <19:08:08>  SCF converged
 <Sep07-2020> <19:08:09>     18      0.00000321      0.00000049      0.0
 <Sep07-2020> <19:08:10>  >>>> TOTEN
 <Sep07-2020> <19:08:10>  >>>> POPAN
 <Sep07-2020> <19:08:10>  >>>> DEBYE
 <Sep07-2020> <19:08:10>  >>>> ENGRAD
 <Sep07-2020> <19:08:14>  Geometry symmetry displacement   10 out of   12
  Coordinates in Geometry Cycle 30
    Atom         X           Y           Z   (Angstrom)
    1.W         3.135587    1.893620   11.744287
    2.W         4.572301    5.263533   11.423589
    3.W         3.379473    8.505218   12.797422
    4.O         4.643602    5.244418    9.690456
    5.O         6.204172    5.410996   11.991795
    6.O         1.619384    1.766160   12.568854
    7.O         2.839277    1.677329   10.051350
    8.O         3.580773    6.743173   11.957576
    9.O         4.633943    8.789109   14.002782
   10.O         1.806017    8.605799   13.588315
   11.O         3.479981    9.776555   11.579183
   12.O         3.855851    3.620738   12.067100
   13.O         4.295862    0.500722   12.267887
   14.H         4.174680    0.121194   13.164659
 <Sep07-2020> <19:08:14>  >>>> CORORT
 <Sep07-2020> <19:08:14>  >>>> CLSMAT
 <Sep07-2020> <19:08:14>  >>>> ORTHON
 <Sep07-2020> <19:08:14>  >>>> GENPT
 <Sep07-2020> <19:08:15>  Block Length= 128
 <Sep07-2020> <19:08:15>  >>>> PTBAS
 <Sep07-2020> <19:08:16>  combining surface points...
 <Sep07-2020> <19:08:16>  combining surface points...
 <Sep07-2020> <19:08:16>  combining surface points...
 <Sep07-2020> <19:08:16>  >>>> CYCLE
 <Sep07-2020> <19:08:19>              |Error|         MaxErr       Wt(A-DIIS)
 <Sep07-2020> <19:08:19>      1      0.17510081      0.04646636
 <Sep07-2020> <19:08:21>      2      0.63919950      0.10963984    100.0
 <Sep07-2020> <19:08:23>      3      0.16499871      0.01705457    100.0
 <Sep07-2020> <19:08:25>      4      0.08894694      0.01485273     14.0
 <Sep07-2020> <19:08:27>      5      0.14376238      0.02393719    100.0
 <Sep07-2020> <19:08:28>      6      0.19044481      0.02728877    100.0
 <Sep07-2020> <19:08:30>      7      0.13355958      0.01379286    100.0
 <Sep07-2020> <19:08:32>      8      0.04920584      0.00778138      6.8
 <Sep07-2020> <19:08:34>      9      0.00816703      0.00143000      0.4
 <Sep07-2020> <19:08:35>     10      0.00333678      0.00063666      0.0
 <Sep07-2020> <19:08:37>     11      0.00071007      0.00012208      0.0
 <Sep07-2020> <19:08:39>     12      0.00026212      0.00003863      0.0
 <Sep07-2020> <19:08:40>     13      0.00015332      0.00002507      0.0
 <Sep07-2020> <19:08:42>     14      0.00011928      0.00002052      0.0
 <Sep07-2020> <19:08:43>     15      0.00003250      0.00000488      0.0
 <Sep07-2020> <19:08:45>     16      0.00001280      0.00000167      0.0
 <Sep07-2020> <19:08:46>     17      0.00000426      0.00000068      0.0
 <Sep07-2020> <19:08:47>  SCF converged
 <Sep07-2020> <19:08:48>     18      0.00000321      0.00000049      0.0
 <Sep07-2020> <19:08:49>  >>>> TOTEN
 <Sep07-2020> <19:08:49>  >>>> POPAN
 <Sep07-2020> <19:08:49>  >>>> DEBYE
 <Sep07-2020> <19:08:49>  >>>> ENGRAD
 <Sep07-2020> <19:08:53>  Old frequency:    -24.92966, new:    -13.21472
 <Sep07-2020> <19:08:53>  Geometry symmetry displacement   11 out of   12
  Coordinates in Geometry Cycle 30
    Atom         X           Y           Z   (Angstrom)
    1.W         3.135781    1.893476   11.744279
    2.W         4.571878    5.263654   11.423625
    3.W         3.379645    8.505228   12.797396
    4.O         4.643253    5.244540    9.690496
    5.O         6.203682    5.411605   11.991889
    6.O         1.619563    1.765813   12.568789
    7.O         2.839557    1.677164   10.051331
    8.O         3.579891    6.743040   11.957543
    9.O         4.633760    8.787991   14.003389
   10.O         1.805886    8.607060   13.587523
   11.O         3.481818    9.776545   11.579276
   12.O         3.855869    3.620663   12.067127
   13.O         4.296235    0.500742   12.267913
   14.H         4.175018    0.121118   13.164640
 <Sep07-2020> <19:08:53>  >>>> CORORT
 <Sep07-2020> <19:08:53>  >>>> CLSMAT
 <Sep07-2020> <19:08:53>  >>>> ORTHON
 <Sep07-2020> <19:08:53>  >>>> GENPT
 <Sep07-2020> <19:08:53>  Block Length= 128
 <Sep07-2020> <19:08:54>  >>>> PTBAS
 <Sep07-2020> <19:08:54>  combining surface points...
 <Sep07-2020> <19:08:54>  combining surface points...
 <Sep07-2020> <19:08:54>  combining surface points...
 <Sep07-2020> <19:08:54>  >>>> CYCLE
 <Sep07-2020> <19:08:58>              |Error|         MaxErr       Wt(A-DIIS)
 <Sep07-2020> <19:08:58>      1      0.16127701      0.03025911
 <Sep07-2020> <19:09:00>      2      0.63928175      0.10964207    100.0
 <Sep07-2020> <19:09:02>      3      0.16505416      0.01707847    100.0
 <Sep07-2020> <19:09:04>      4      0.08893892      0.01484571     14.0
 <Sep07-2020> <19:09:05>      5      0.14374780      0.02392562    100.0
 <Sep07-2020> <19:09:07>      6      0.19069156      0.02732371    100.0
 <Sep07-2020> <19:09:09>      7      0.13339216      0.01376963    100.0
 <Sep07-2020> <19:09:11>      8      0.04957099      0.00783295      6.9
 <Sep07-2020> <19:09:12>      9      0.00817674      0.00143274      0.4
 <Sep07-2020> <19:09:14>     10      0.00333671      0.00063718      0.0
 <Sep07-2020> <19:09:16>     11      0.00071057      0.00012217      0.0
 <Sep07-2020> <19:09:17>     12      0.00026218      0.00003860      0.0
 <Sep07-2020> <19:09:19>     13      0.00015342      0.00002510      0.0
 <Sep07-2020> <19:09:21>     14      0.00011935      0.00002050      0.0
 <Sep07-2020> <19:09:22>     15      0.00003244      0.00000487      0.0
 <Sep07-2020> <19:09:24>     16      0.00001285      0.00000169      0.0
 <Sep07-2020> <19:09:25>     17      0.00000425      0.00000068      0.0
 <Sep07-2020> <19:09:25>  SCF converged
 <Sep07-2020> <19:09:27>     18      0.00000321      0.00000049      0.0
 <Sep07-2020> <19:09:27>  >>>> TOTEN
 <Sep07-2020> <19:09:28>  >>>> POPAN
 <Sep07-2020> <19:09:28>  >>>> DEBYE
 <Sep07-2020> <19:09:28>  >>>> ENGRAD
 <Sep07-2020> <19:09:32>  Geometry symmetry displacement   12 out of   12
  Coordinates in Geometry Cycle 30
    Atom         X           Y           Z   (Angstrom)
    1.W         3.135550    1.893797   11.744461
    2.W         4.572497    5.263419   11.423281
    3.W         3.379369    8.505180   12.797562
    4.O         4.643028    5.244023    9.690120
    5.O         6.204661    5.410498   11.990758
    6.O         1.619361    1.766348   12.569055
    7.O         2.839205    1.677553   10.051524
    8.O         3.581602    6.743392   11.957452
    9.O         4.632745    8.788880   14.004105
   10.O         1.805220    8.605371   13.587128
   11.O         3.480782    9.776869   11.579768
   12.O         3.855834    3.620910   12.067314
   13.O         4.295807    0.500862   12.268001
   14.H         4.174626    0.121297   13.164758
 <Sep07-2020> <19:09:32>  >>>> CORORT
 <Sep07-2020> <19:09:32>  >>>> CLSMAT
 <Sep07-2020> <19:09:32>  >>>> ORTHON
 <Sep07-2020> <19:09:32>  >>>> GENPT
 <Sep07-2020> <19:09:32>  Block Length= 128
 <Sep07-2020> <19:09:32>  >>>> PTBAS
 <Sep07-2020> <19:09:33>  combining surface points...
 <Sep07-2020> <19:09:33>  combining surface points...
 <Sep07-2020> <19:09:33>  combining surface points...
 <Sep07-2020> <19:09:33>  >>>> CYCLE
 <Sep07-2020> <19:09:37>              |Error|         MaxErr       Wt(A-DIIS)
 <Sep07-2020> <19:09:37>      1      0.16342605      0.02477790
 <Sep07-2020> <19:09:39>      2      0.63916861      0.10966277    100.0
 <Sep07-2020> <19:09:40>      3      0.16494397      0.01703506    100.0
 <Sep07-2020> <19:09:42>      4      0.08894077      0.01485863     14.0
 <Sep07-2020> <19:09:44>      5      0.14372019      0.02394149    100.0
 <Sep07-2020> <19:09:46>      6      0.19023465      0.02726520    100.0
 <Sep07-2020> <19:09:47>      7      0.13367501      0.01381141    100.0
 <Sep07-2020> <19:09:49>      8      0.04890862      0.00774178      6.8
 <Sep07-2020> <19:09:51>      9      0.00815851      0.00142796      0.4
 <Sep07-2020> <19:09:53>     10      0.00333724      0.00063591      0.0
 <Sep07-2020> <19:09:54>     11      0.00070968      0.00012203      0.0
 <Sep07-2020> <19:09:56>     12      0.00026222      0.00003869      0.0
 <Sep07-2020> <19:09:58>     13      0.00015325      0.00002512      0.0
 <Sep07-2020> <19:09:59>     14      0.00011934      0.00002059      0.0
 <Sep07-2020> <19:10:01>     15      0.00003252      0.00000488      0.0
 <Sep07-2020> <19:10:02>     16      0.00001277      0.00000166      0.0
 <Sep07-2020> <19:10:04>     17      0.00000428      0.00000068      0.0
 <Sep07-2020> <19:10:04>  SCF converged
 <Sep07-2020> <19:10:05>     18      0.00000322      0.00000049      0.0
 <Sep07-2020> <19:10:06>  >>>> TOTEN
 <Sep07-2020> <19:10:07>  >>>> POPAN
 <Sep07-2020> <19:10:07>  >>>> DEBYE
 <Sep07-2020> <19:10:07>  >>>> ENGRAD
 <Sep07-2020> <19:10:10>  Old frequency:    -13.92294, new:     26.49150
 <Sep07-2020> <19:10:10>  NOTE: Some frequencies have been re-calculated by numerical differentiation
 <Sep07-2020> <19:10:10>        Check the text output file for new values!
 <Sep07-2020> <19:10:10>  NORMAL TERMINATION
 <Sep07-2020> <19:10:10>  END
