
 *******************************************************************************
 *                                                                             *
 *  -------------------------------------                                      *
 *   Amsterdam Density Functional  (ADF)         2019                          *
 *  -------------------------------------                                      *
 *                                               r79301 2019-11-09             *
 *                                                                             *
 *                                                                             *
 *                            =====================                            *
 *                            |                   |                            *
 *                            |     D I R A C     |                            *
 *                            |                   |                            *
 *                            =====================                            *
 *                                                                             *
 *                                                                             *
 *   Online information and documentation:  https://www.scm.com/support/       *
 *   E-mail:  support@scm.com   info@scm.com                                   *
 *                                                                             *
 *   Scientific publications using ADF results must be properly referenced     *
 *   See the User Manuals (or the web site) for recommended citations          *
 *   The terms and conditions of the End User License Agreement apply to       *
 *   the use of ADF, https://www.scm.com/license-terms/                        *
 *                                                                             *
 **********************  x86_64_linux_intel / intelmpi  ************************
 
 
 
  
 DIRAC 2019  RunTime: Oct18-2020 22:51:43  Nodes: 1  Procs: 1

 Temporary files are created in /scratch/kid_0.979143633 (0x58465342)

1
 HYDROGEN ATOM RELATIVISTIC, Point Nuc, A and c from libtc   
 N J RN H ZN XION ANUC CLIGHT
 5000    1100.00000000197.36710137  1.00000000  0.00000000    1.007825  0.1370360E+03
  PH   PHI     EPS        DEL        DELRVR
  0.30  0.30     2500.00  0.00001000  0.00001000
 IDIRC  NC1  NDEBU NPRIN  IPUN IRCOR IWCOR
   1   300     0     0     0     0     0
   XALPHA      XLATTER      RNUC
  0.70000000  0.00000000  0.00000000 Point Charge
   XN   XL   XJ      XE          XZ      XDELL
  1.0  0.0  0.5      -1.000       1.000     0.00000
 ICORP=  0  NPCL=  0  DEMP=0.00  PEPS=0.000000
 R(1)=  0.1000000E-08 D=  0.1005080E+01 RNUC=  0.0000000E+00
 converged at cycle   32  DENSITY AVERAGING    0.2400
  MAXIMUM ERROR IN R.V(R) IS   0.79874357E-05
 Q,EY,EV,EZ,ESUM,ETOT,RHO  0.100000E+01 -0.266614E+00 -0.619969E+00 -0.910779E+00 -0.203940E+00 -0.415998E+00  0.337036E-17


 DIRAC CALCULATION
1                    HYDROGEN ATOM RELATIVISTIC, Point Nuc, A and c from libtc


 EXCHANGE COEFFICIENT=  0.7000000           TAIL CORRECTION=  0.           NUCLEAR RADIUS=  0.000E+00
0                       ORBITAL    N    L    J     ELECTRONS     EIGENVALUE                DELTA OF EIGENV.

                          1S1/2  1.0  0.0  0.5     1.000       -0.2039397E+00                 0.2720093E-06


                                        NUCLEAR CHARGE=    1.000000
                            INTEGRAL OF CHARGE DENSITY=    1.000000
                           SUM OF THE ORBITAL ENERGIES=     -0.2039
                                          TOTAL ENERGY=     -0.4160
                                        KINETIC ENERGY=      0.4160
                             NUCLEAR ATTRACTION ENERGY=     -0.9108
                             ELECTRON REPULSION ENERGY=      0.2787
                                       EXCHANGE ENERGY=     -0.2000

 *******************************************************************************

                             D I R A C   E X I T
 NORMAL TERMINATION



 =================
 Timing Statistics
 =================
  
 Total Used :                     CPU=        0.06      System=        0.00     Elapsed=        0.07

 Calls  Section                     ( Mean, Percentage )
 ---------------------------------------------------------------------------------------------------
     2  ><      ................      0.00    0.00             0.00    0.00             0.00    0.01
     1  EXIT PROCEDURE .........      0.06  100.00             0.00  100.00             0.07   99.99


 Currently Open Files (EXIT00)
 ====================

 Unit    Access Format  Status   Type       Ident (file)
 -------------------------------------------------------
   3      SEQ    FORM   TRANSP  NORMAL      LOGFILE
                                          ( logfile )
 
Create H   file=TZP-H
XC
  GGA PBE
End
relativistic ZORA
Corepotentials t12.rel
End

 *******************************************************************************
 *                                                                             *
 *  -------------------------------------                                      *
 *   Amsterdam Density Functional  (ADF)         2019                          *
 *  -------------------------------------                                      *
 *                                               r79301 2019-11-09             *
 *                                                                             *
 *                                                                             *
 *                              =================                              *
 *                              |               |                              *
 *                              |     A D F     |                              *
 *                              |               |                              *
 *                              =================                              *
 *                                                                             *
 *                                                                             *
 *   Online information and documentation:  https://www.scm.com/support/       *
 *   E-mail:  support@scm.com   info@scm.com                                   *
 *                                                                             *
 *   Scientific publications using ADF results must be properly referenced     *
 *   See the User Manuals (or the web site) for recommended citations          *
 *   The terms and conditions of the End User License Agreement apply to       *
 *   the use of ADF, https://www.scm.com/license-terms/                        *
 *                                                                             *
 **********************  x86_64_linux_intel / intelmpi  ************************
 
 
 
  
 ADF 2019  RunTime: Oct18-2020 22:51:43  Nodes: 1  Procs: 1

 Temporary files are created in /scratch/kid_0.2134589788 (0x58465342)

 Hydrogen (TZP)



 ===========================
 A T T A C H E D   F I L E S
 ===========================
  
 CREATE - Data File:    TZP-H
                        Hydrogen (TZP)
 Core Potentials:
         file : t12.rel



 ===============================
 M O D E L   P A R A M E T E R S
 ===============================
  
 DENSITY FUNCTIONAL POTENTIAL (scf)
    LDA:                               PW92                                    == Not Default ==
    Gradient Corrections:              PBEc PBEx                               == Not Default ==

 SPIN  (restricted / unrestr.)
    Molecule:                          Restricted                               

 OTHER ASPECTS
    Relativistic Corrections:          scalar (ZORA,MAPA)                      == Not Default ==

    Nuclear Charge Density Model:      Point Charge Nuclei                      
    Core Treatment:                    Frozen Orbital(s)                        

    Hyperfine or Zeeman Interaction:   ---                                      



 =====================================
 S Y M M E T R Y ,   E L E C T R O N S
 =====================================
  
 Symmetry: ATOM

 Irreducible Representations, including subspecies
 -------------------------------------------------
 S
 P:x  P:y  P:z
 D:z2  D:x2-y2  D:xy  D:xz  D:yz
 F:z3  F:z  F:xyz  F:z2x  F:z2y  F:x  F:y


 Configuration of Valence Electrons
 ==================================

          Occupation Numbers
          -------------------------------------------------
 S        1
 P        0
 D        0
 F        0
          -------------------------------------------------

 Total:   1

 Net Charge: 0 (Nuclei minus Electrons)

 Preset values for MO occupations will be applied through SCF cycle no. 1000000
 Thereafter, the program will assign electrons to MOs that are spatially
 similar to the occupied MOs in a "reference" cycle ("KeepOrbitals").
 The reference cycle is always the PREVIOUS cycle: it will evolve with
 the SCF procedure.



 ================================
 (Slater-type)  F U N C T I O N S  ***  (Basis and Fit)  ***
 ================================
  

 Atom Type    1  (H)
 ==============

 Valence Basis Sets:   4
 -----------------------
   1 S    0.690000
   1 S    0.920000
   1 S    1.580000
   2 P    1.250000


 BAS: List of all Elementary Cartesian Basis Functions
 =====================================================

 The numbering in the list below (to the right of the function characteristics) is referred
 to in print-outs of MO eigenvectors and Mulliken populations in the BAS representation
 (as contrasted to the SFO representation).

 Notes:
 1. The functions are characterized by a polynomial prefactor (powers of x,y,z and r) and
    an exponential decay factor alpha.
 2. Since the basis sets are specific for an atom TYPE, the individual functions occur on
    all atoms of that type.
 3. The word 'Core' in the left margin signals that it is a Core Function (CF) : not a
    degree of freedom in the valence set, but only used to ensure orthogonalization of
    the other valence basis functions on the frozen Core Orbitals.


 (power of) X  Y  Z  R     Alpha  on Atom
            ==========     =====     ==========

 H                                    1
                                  ---------------------------------------------------------------------------
            0  0  0  0     0.690      1
            0  0  0  0     0.920      2
            0  0  0  0     1.580      3
            1  0  0  0     1.250      4
            0  1  0  0     1.250      5
            0  0  1  0     1.250      6

 Total number of charge fitting functions (nprimf)        50
 Total number of Cartesian basis functions (naos)          6
 Total number of Cartesian core functions  (ncos)          0



 BAS: List of all Elementary Cartesian Basis Functions
 =====================================================

 The numbering in the list below (to the right of the function characteristics) is referred
 to in print-outs of MO eigenvectors and Mulliken populations in the BAS representation
 (as contrasted to the SFO representation).

 Notes:
 1. The functions are characterized by a polynomial prefactor (powers of x,y,z and r) and
    an exponential decay factor alpha.
 2. Since the basis sets are specific for an atom TYPE, the individual functions occur on
    all atoms of that type.
 3. The word 'Core' in the left margin signals that it is a Core Function (CF) : not a
    degree of freedom in the valence set, but only used to ensure orthogonalization of
    the other valence basis functions on the frozen Core Orbitals.


 (power of) X  Y  Z  R     Alpha  on Atom
            ==========     =====     ==========

 H                                    1
                                  ---------------------------------------------------------------------------
            0  0  0  0     0.690      1
            0  0  0  0     0.920      2
            0  0  0  0     1.580      3
            1  0  0  0     1.250      4
            0  1  0  0     1.250      5
            0  0  1  0     1.250      6
1
 ***************************************************************************************************



                                              ***********************
                                              *  T E C H N I C A L  *
                                              ***********************
  



 =============================================================
 P A R A L L E L I Z A T I O N  and  V E C T O R I Z A T I O N
 =============================================================
  
 Nr of parallel processes:                                1
 Maximum vector length in NumInt loops:                 128



 =====================
 S C F   U P D A T E S
 =====================
  
 Max. nr. of cycles:                               300
 Convergence criterion:                              0.0000000100
   secondary criterion:                              0.0000000100

 Mix parameter (when DIIS does not apply):           0.2000000000
 Special mix parameter for the first cycle:          1.0000000000
 Mixed ADIIS+SDIIS will be used                  
    Max number of expansion vectors:                10
    Pure ADIIS when Max([F,P]) is above              0.1000000000
    Pure SDIIS when Max([F,P]) is below              0.0010000000
 Automatic ElectronSmearing (in case of problematic SCF convergence) disabled



 =================
 P R E C I S I O N  ***  (General: NumInt, NeglectFunctionTails, ...)  ***
 =================
  

 NumInt:           Target precision:                12.0000000000
 -------           Initial precision:               10.0000000000
                   Min. precision (optimization):   10.0000000000

 Neglect Functions:          Basis functions:        0.1000000000E-13
 ------------------          Fit functions:          0.1000000000E-13



 ===========================
 L I N E A R   S C A L I N G
 ===========================
  

 Cut-off radii density fit:                        0.1000000000E-97
 Overlap cut-off criterion AO matrix elements:     0.1000000000E-97
 Cut-offs for Coulomb potential and fitted density:0.1000000000E-97
 Cut-off criterion for Coulomb multipole terms:    0.1000000000E-97
 Progressive Convergence parameter:                 0.000000000    
1
 ***************************************************************************************************



                                            ***************************
                                            *  C O M P U T A T I O N  *
                                            ***************************
  

 Number of elements of the density matrix on this node (used, total):        21        21



 ===========================================
 Numerical Integration : Fuzzy Cells (Becke)
 ===========================================
  
 Becke grid quality: VERYGOOD       
  
 Lebedev angular grid order:             min:  13 max:  41
 Nr. of radial points:                   min:  64 max:  64

 Total nr. of points:         64
 Nr. of blocks:                1
 Block length:                64
 Nr. of dummy points:          0


 Test of Precision of the Numerical Integration Grid
 ===================================================

 Integral of the Total Core Density:                   0.00000000000000



 ========================
 Density Fitting (zlmFit)
 ========================
  
 ZlmFit Fit Quality: VERYGOOD       
  
 Max L-expansion:                        min:   0 max:   0
 Nr. of radial interpolation points:     min: 120 max: 120



 =====
 S C F  ***  ScaSCF  ***
 =====
  

 CYCLE    1
 SCF Error: norm([F,P])=      0.000000000000, max([F,P])=      0.000000000000
 orbitals (Q,E):
 ---------------
 S :1...3            ( 1.00    -0.5000)  ( 0.00    -0.0900)  ( 0.00     1.2936)
 P :1...1            ( 0.00     0.1562)

 CYCLE    2
 SCF Error: norm([F,P])=      0.031537872292, max([F,P])=      0.030110494752
 orbitals (Q,E):
 ---------------
 S :1...2            ( 1.00    -0.2218)  ( 0.00     0.1019)
 P :1...1            ( 0.00     0.4189)

 CYCLE    3
  SDIIS (wt  0.000):  0.1996  0.8004
 A-DIIS (wt  1.000):  0.0000  1.0000
  DIIS coefficients:  0.0000  1.0000
 SCF Error: norm([F,P])=      0.008617989401, max([F,P])=      0.008343029399
 orbitals (Q,E):
 ---------------
 S :1...2            ( 1.00    -0.2422)  ( 0.00     0.0889)
 P :1...1            ( 0.00     0.4024)

 CYCLE    4
  SDIIS (wt  0.993):  0.1666  0.8334
 A-DIIS (wt  0.007):  0.0000  1.0000
  DIIS coefficients:  0.1654  0.8346
 SCF Error: norm([F,P])=      0.001732350026, max([F,P])=      0.001718616814
 orbitals (Q,E):
 ---------------
 S :1...2            ( 1.00    -0.2385)  ( 0.00     0.0908)
 P :1...1            ( 0.00     0.4054)

 CYCLE    5
  SDIIS (wt  1.000):  0.0236  0.9764
  DIIS coefficients:  0.0236  0.9764
 SCF Error: norm([F,P])=      0.000043673449, max([F,P])=      0.000039769875
 orbitals (Q,E):
 ---------------
 S :1...2            ( 1.00    -0.2386)  ( 0.00     0.0908)
 P :1...1            ( 0.00     0.4054)

 CYCLE    6
  SDIIS (wt  1.000): -0.0577  1.0577
  DIIS coefficients: -0.0577  1.0577
 SCF Error: norm([F,P])=      0.000002383805, max([F,P])=      0.000002158128
 orbitals (Q,E):
 ---------------
 S :1...2            ( 1.00    -0.2386)  ( 0.00     0.0908)
 P :1...1            ( 0.00     0.4054)

 CYCLE    7
  SDIIS (wt  1.000): -0.0032  1.0032
  DIIS coefficients: -0.0032  1.0032
 SCF Error: norm([F,P])=      0.000000007721, max([F,P])=      0.000000007228
 orbitals (Q,E):
 ---------------
 S :1...2            ( 1.00    -0.2386)  ( 0.00     0.0908)
 P :1...1            ( 0.00     0.4054)

 SCF CONVERGED

 CYCLE    8
1
 ***************************************************************************************************



                                                *******************
                                                *  R E S U L T S  *
                                                *******************
  
 *** Using FIT density in Focky
  SDIIS (wt  1.000):  0.0192  0.9808
  DIIS coefficients:  0.0192  0.9808
 SCF Error: norm([F,P])=      0.000000000151, max([F,P])=      0.000000000141

 Scaled ZORA Orbital Energies, per Irrep and Spin:
 =================================================
                        Occup              E (au)              E (eV)       Diff (eV) with prev. cycle
                        -----      --------------------        ------       --------------------------
 S
               1        1.000     -0.23861775226993E+00        -6.493               7.43E-09
               2        0.000      0.90791701709251E-01         2.471
               3        0.000      0.15217530108908E+01        41.409
 P
               1        0.000      0.40537978060393E+00        11.031


 Partially Occupied:
               1 S                -0.23861775226993E+00
  
 LUMO :        2 S                 0.90791701709251E-01
  


 Orbital Energies, all Irreps
 ========================================

 Irrep        no.  (spin)   Occup              E (au)                E (eV)
 ---------------------------------------------------------------------------
 S             1             1.00       -0.23861775226993E+00        -6.4931
 S             2             0.00        0.90791701709251E-01         2.4706
 P             1             0.00        0.40537978060393E+00        11.0309
 S             3             0.00        0.15217530108908E+01        41.4090


 All Electron Calculation, thus no Orbital Energies of the Core Orbitals are calculated



 =======================================
 M U L L I K E N   P O P U L A T I O N S
 =======================================
  
 The survey below gives for each atom:
 a) the total charge (Z minus electrons)
 b) the net spin polarization (nr of electrons spin-A minus spin-B)
 c) for each spin the atomic electron valence density (integrated) per L-value.

 Atom              Charge    Spin density          S         P         D         F
 ----              ------    ------------       ------    ------    ------    ------
 1 H              -0.0000                       1.0000    0.0000    0.0000    0.0000

 Populations of individual BAS functions
 ----------------------------------------
 1 H            0.2104  0.6788  0.1107  0.0000  0.0000  0.0000

 Gross Charges per Atom (Z minus electrons)
 ==========================================
            -0.0000
 Net Total: -0.00000000



 =======================================================================
 Electrostatic potential at the Nuclei due to electrons and other nuclei
 =======================================================================
  
         Atom                  Potential
         ----                  ---------
     1)   H                   0.94468022
 
 
 ========================
 No memory problems found
 ========================
 
 Maximum number of active allocate calls:         306
 
 *******************************************************************************

                             A D F   E X I T
 NORMAL TERMINATION



 =================
 Timing Statistics
 =================
  
 Total Used :                     CPU=        0.32      System=        0.03     Elapsed=        0.38

 Calls  Section                     ( Mean, Percentage )
 ---------------------------------------------------------------------------------------------------
     3  ><      ................      0.00    0.00             0.00   12.50             0.00    1.15
     1  INIT    ................      0.06   19.75             0.01   25.00             0.08   20.29
     1  GEOMET  ................      0.02    4.94             0.00   12.50             0.02    5.91
     1  INPUTA  ................      0.00    1.23             0.00    0.00             0.00    0.89
     1  MAINSY  ................      0.01    3.70             0.00    0.00             0.01    3.29
     1  SYMFIT  ................      0.00    0.00             0.00    0.00             0.00    0.43
     1  CORORT  ................      0.00    0.00             0.00    0.00             0.00    0.32
     1  SYMORB  ................      0.00    0.00             0.00    0.00             0.00    0.19
     1  CLSMAT  ................      0.00    1.23             0.00    0.00             0.01    1.36
     1  ORTHON  ................      0.00    1.23             0.00    0.00             0.00    1.24
     1  GENPT   ................      0.01    3.70             0.00   12.50             0.01    3.27
     1  PTBAS   ................      0.00    0.00             0.00    0.00             0.01    1.35
     8  FOCKY   ................      0.02   49.38             0.00   37.50             0.02   44.66
     8  FOCKTR  ................      0.00    1.23             0.00    0.00             0.00    1.25
     8  SDIIS   ................      0.00    3.70             0.00    0.00             0.00    5.67
     1  COREPS  ................      0.01    3.70             0.00    0.00             0.01    3.66
     1  POPAN   ................      0.00    1.23             0.00    0.00             0.00    1.22
     1  DEBYE   ................      0.00    1.23             0.00    0.00             0.00    0.49
     1  EXIT PROCEDURE .........      0.01    3.70             0.00    0.00             0.01    3.37


 Currently Open Files (EXIT00)
 ====================

 Unit    Access Format  Status   Type       Ident (file)
 -------------------------------------------------------
   3      SEQ    FORM   TRANSP  NORMAL      LOGFILE
                                          ( logfile )

 ***************************************************************************************************
 (LOGFILE)
 <Oct18-2020> <22:51:43>  DIRAC 2019  RunTime: Oct18-2020 22:51:43  Nodes: 1  Procs: 1
 <Oct18-2020> <22:51:43>  NORMAL TERMINATION
 <Oct18-2020> <22:51:43>  END
 <Oct18-2020> <22:51:43>  ADF 2019  RunTime: Oct18-2020 22:51:43  Nodes: 1  Procs: 1
 <Oct18-2020> <22:51:43>  Hydrogen (TZP)
 <Oct18-2020> <22:51:43>  RunType   : CREATE
 <Oct18-2020> <22:51:43>  Net Charge: 0 (Nuclei minus Electrons)
 <Oct18-2020> <22:51:43>  Symmetry  : ATOM
  Coordinates
    Atom         X           Y           Z   (Angstrom)
    1.H         0.000000    0.000000    0.000000
 <Oct18-2020> <22:51:43>  >>>> CORORT
 <Oct18-2020> <22:51:43>  >>>> CLSMAT
 <Oct18-2020> <22:51:43>  >>>> ORTHON
 <Oct18-2020> <22:51:43>  >>>> GENPT
 <Oct18-2020> <22:51:43>  Block Length=  64
 <Oct18-2020> <22:51:43>  >>>> PTBAS
 <Oct18-2020> <22:51:43>  >>>> CYCLE
 <Oct18-2020> <22:51:43>              |Error|         MaxErr       Wt(A-DIIS)
 <Oct18-2020> <22:51:43>      1      0.00000000      0.00000000
 <Oct18-2020> <22:51:43>      2      0.03153787      0.03011049
 <Oct18-2020> <22:51:43>      3      0.00861799      0.00834303    100.0
 <Oct18-2020> <22:51:43>      4      0.00173235      0.00171862      0.7
 <Oct18-2020> <22:51:43>      5      0.00004367      0.00003977      0.0
 <Oct18-2020> <22:51:43>      6      0.00000238      0.00000216      0.0
 <Oct18-2020> <22:51:43>      7      0.00000001      0.00000001      0.0
 <Oct18-2020> <22:51:44>  SCF converged
 <Oct18-2020> <22:51:44>      8      0.00000000      0.00000000      0.0
 <Oct18-2020> <22:51:44>  >>>> POPAN
 <Oct18-2020> <22:51:44>  >>>> DEBYE
 <Oct18-2020> <22:51:44>  NORMAL TERMINATION
 <Oct18-2020> <22:51:44>  END

 *******************************************************************************
 *                                                                             *
 *  -------------------------------------                                      *
 *   Amsterdam Density Functional  (ADF)         2019                          *
 *  -------------------------------------                                      *
 *                                               r79301 2019-11-09             *
 *                                                                             *
 *                                                                             *
 *                            =====================                            *
 *                            |                   |                            *
 *                            |     D I R A C     |                            *
 *                            |                   |                            *
 *                            =====================                            *
 *                                                                             *
 *                                                                             *
 *   Online information and documentation:  https://www.scm.com/support/       *
 *   E-mail:  support@scm.com   info@scm.com                                   *
 *                                                                             *
 *   Scientific publications using ADF results must be properly referenced     *
 *   See the User Manuals (or the web site) for recommended citations          *
 *   The terms and conditions of the End User License Agreement apply to       *
 *   the use of ADF, https://www.scm.com/license-terms/                        *
 *                                                                             *
 **********************  x86_64_linux_intel / intelmpi  ************************
 
 
 
  
 DIRAC 2019  RunTime: Oct18-2020 22:51:44  Nodes: 1  Procs: 1

 Temporary files are created in /scratch/kid_0.2137292283 (0x58465342)

1
 OXYGEN ATOM 1s CORE RELATIVISTIC, Point Nuc, A and c from li
 N J RN H ZN XION ANUC CLIGHT
 5000    4100.00000000197.36710137  8.00000000  0.00000000   15.994914  0.1370360E+03
  PH   PHI     EPS        DEL        DELRVR
  0.30  0.30     2500.00  0.00001000  0.00001000
 IDIRC  NC1  NDEBU NPRIN  IPUN IRCOR IWCOR
   1   300     0     0     0     0     1
   XALPHA      XLATTER      RNUC
  0.70000000  0.00000000  0.00000000 Point Charge
   XN   XL   XJ      XE          XZ      XDELL
  1.0  0.0  0.5      -5.000       2.000     0.00000
  2.0  0.0  0.5      -1.000       2.000     0.00000
  2.0  1.0  0.5      -1.000       2.000     0.00000
  2.0  1.0  1.5      -1.000       2.000     0.00000
 ICORP=  0  NPCL=  0  DEMP=0.00  PEPS=0.000000
 R(1)=  0.1000000E-08 D=  0.1005080E+01 RNUC=  0.0000000E+00
 converged at cycle   28  DENSITY AVERAGING    0.2400
  MAXIMUM ERROR IN R.V(R) IS   0.81125670E-05
 Q,EY,EV,EZ,ESUM,ETOT,RHO  0.800000E+01 -0.101247E+02 -0.114961E+03 -0.177573E+03 -0.405053E+02 -0.743427E+02  0.414766E-14


 DIRAC CALCULATION
1                    OXYGEN ATOM 1s CORE RELATIVISTIC, Point Nuc, A and c from libtc


 EXCHANGE COEFFICIENT=  0.7000000           TAIL CORRECTION=  0.           NUCLEAR RADIUS=  0.000E+00
0                       ORBITAL    N    L    J     ELECTRONS     EIGENVALUE                DELTA OF EIGENV.

                          1S1/2  1.0  0.0  0.5     2.000       -0.1880014E+02                 0.7264358E-06
                          2S1/2  2.0  0.0  0.5     2.000       -0.8412236E+00                 0.5932752E-05
                          2P1/2  2.0  1.0  0.5     2.000       -0.3063203E+00                 0.5998471E-05
                          2P3/2  2.0  1.0  1.5     2.000       -0.3049609E+00                 0.5986971E-05


                                        NUCLEAR CHARGE=    8.000000
                            INTEGRAL OF CHARGE DENSITY=    8.000000
                           SUM OF THE ORBITAL ENERGIES=    -40.5053
                                          TOTAL ENERGY=    -74.3427
                                        KINETIC ENERGY=     74.4552
                             NUCLEAR ATTRACTION ENERGY=   -177.5730
                             ELECTRON REPULSION ENERGY=     36.3686
                                       EXCHANGE ENERGY=     -7.5935

 *******************************************************************************

                             D I R A C   E X I T
 NORMAL TERMINATION



 =================
 Timing Statistics
 =================
  
 Total Used :                     CPU=        0.10      System=        0.00     Elapsed=        0.11

 Calls  Section                     ( Mean, Percentage )
 ---------------------------------------------------------------------------------------------------
     2  ><      ................      0.00    0.00             0.00    0.00             0.00    0.01
     1  EXIT PROCEDURE .........      0.10  100.00             0.00    0.00             0.11   99.99


 Currently Open Files (EXIT00)
 ====================

 Unit    Access Format  Status   Type       Ident (file)
 -------------------------------------------------------
   3      SEQ    FORM   TRANSP  NORMAL      LOGFILE
                                          ( logfile )
 
Create O   file=TZP-O.1s
XC
  GGA PBE
End
relativistic ZORA
Corepotentials t12.rel
End

 *******************************************************************************
 *                                                                             *
 *  -------------------------------------                                      *
 *   Amsterdam Density Functional  (ADF)         2019                          *
 *  -------------------------------------                                      *
 *                                               r79301 2019-11-09             *
 *                                                                             *
 *                                                                             *
 *                              =================                              *
 *                              |               |                              *
 *                              |     A D F     |                              *
 *                              |               |                              *
 *                              =================                              *
 *                                                                             *
 *                                                                             *
 *   Online information and documentation:  https://www.scm.com/support/       *
 *   E-mail:  support@scm.com   info@scm.com                                   *
 *                                                                             *
 *   Scientific publications using ADF results must be properly referenced     *
 *   See the User Manuals (or the web site) for recommended citations          *
 *   The terms and conditions of the End User License Agreement apply to       *
 *   the use of ADF, https://www.scm.com/license-terms/                        *
 *                                                                             *
 **********************  x86_64_linux_intel / intelmpi  ************************
 
 
 
  
 ADF 2019  RunTime: Oct18-2020 22:51:44  Nodes: 1  Procs: 1

 Temporary files are created in /scratch/kid_0.186074734 (0x58465342)

 Oxygen (TZP, 1s frozen)



 ===========================
 A T T A C H E D   F I L E S
 ===========================
  
 CREATE - Data File:    TZP-O.1s
                        Oxygen (TZP, 1s frozen)
 Core Potentials:
         file : t12.rel



 ===============================
 M O D E L   P A R A M E T E R S
 ===============================
  
 DENSITY FUNCTIONAL POTENTIAL (scf)
    LDA:                               PW92                                    == Not Default ==
    Gradient Corrections:              PBEc PBEx                               == Not Default ==

 SPIN  (restricted / unrestr.)
    Molecule:                          Restricted                               

 OTHER ASPECTS
    Relativistic Corrections:          scalar (ZORA,MAPA)                      == Not Default ==

    Nuclear Charge Density Model:      Point Charge Nuclei                      
    Core Treatment:                    Frozen Orbital(s)                        

    Hyperfine or Zeeman Interaction:   ---                                      



 =====================================
 S Y M M E T R Y ,   E L E C T R O N S
 =====================================
  
 Symmetry: ATOM

 Irreducible Representations, including subspecies
 -------------------------------------------------
 S
 P:x  P:y  P:z
 D:z2  D:x2-y2  D:xy  D:xz  D:yz
 F:z3  F:z  F:xyz  F:z2x  F:z2y  F:x  F:y


 Configuration of Valence Electrons
 ==================================

          Occupation Numbers
          -------------------------------------------------
 S        2
 P        4
 D        0
 F        0
          -------------------------------------------------

 Total:   6

 Net Charge: 0 (Nuclei minus Electrons)

 Preset values for MO occupations will be applied through SCF cycle no. 1000000
 Thereafter, the program will assign electrons to MOs that are spatially
 similar to the occupied MOs in a "reference" cycle ("KeepOrbitals").
 The reference cycle is always the PREVIOUS cycle: it will evolve with
 the SCF procedure.



 ================================
 (Slater-type)  F U N C T I O N S  ***  (Basis and Fit)  ***
 ================================
  

 Atom Type    1  (O)
 ==============

 Valence Basis Sets:   8
 -----------------------
   1 S    7.360000
   2 S    1.720000
   2 S    2.880000
   2 S    7.580000
   2 P    1.120000
   2 P    2.080000
   2 P    4.080000
   3 D    2.000000

 Frozen Core Shells
 ------------------
    S:  1


 BAS: List of all Elementary Cartesian Basis Functions
 =====================================================

 The numbering in the list below (to the right of the function characteristics) is referred
 to in print-outs of MO eigenvectors and Mulliken populations in the BAS representation
 (as contrasted to the SFO representation).

 Notes:
 1. The functions are characterized by a polynomial prefactor (powers of x,y,z and r) and
    an exponential decay factor alpha.
 2. Since the basis sets are specific for an atom TYPE, the individual functions occur on
    all atoms of that type.
 3. The word 'Core' in the left margin signals that it is a Core Function (CF) : not a
    degree of freedom in the valence set, but only used to ensure orthogonalization of
    the other valence basis functions on the frozen Core Orbitals.


 (power of) X  Y  Z  R     Alpha  on Atom
            ==========     =====     ==========

 O                                    1
                                  ---------------------------------------------------------------------------
    Core    0  0  0  0     7.360      1
            0  0  0  1     1.720      2
            0  0  0  1     2.880      3
            0  0  0  1     7.580      4
            1  0  0  0     1.120      5
            0  1  0  0     1.120      6
            0  0  1  0     1.120      7
            1  0  0  0     2.080      8
            0  1  0  0     2.080      9
            0  0  1  0     2.080     10
            1  0  0  0     4.080     11
            0  1  0  0     4.080     12
            0  0  1  0     4.080     13
            2  0  0  0     2.000     14
            1  1  0  0     2.000     15
            1  0  1  0     2.000     16
            0  2  0  0     2.000     17
            0  1  1  0     2.000     18
            0  0  2  0     2.000     19

 Total number of charge fitting functions (nprimf)        82
 Total number of Cartesian basis functions (naos)         19
 Total number of Cartesian core functions  (ncos)          1



 BAS: List of all Elementary Cartesian Basis Functions
 =====================================================

 The numbering in the list below (to the right of the function characteristics) is referred
 to in print-outs of MO eigenvectors and Mulliken populations in the BAS representation
 (as contrasted to the SFO representation).

 Notes:
 1. The functions are characterized by a polynomial prefactor (powers of x,y,z and r) and
    an exponential decay factor alpha.
 2. Since the basis sets are specific for an atom TYPE, the individual functions occur on
    all atoms of that type.
 3. The word 'Core' in the left margin signals that it is a Core Function (CF) : not a
    degree of freedom in the valence set, but only used to ensure orthogonalization of
    the other valence basis functions on the frozen Core Orbitals.


 (power of) X  Y  Z  R     Alpha  on Atom
            ==========     =====     ==========

 O                                    1
                                  ---------------------------------------------------------------------------
    Core    0  0  0  0     7.360      1
            0  0  0  1     1.720      2
            0  0  0  1     2.880      3
            0  0  0  1     7.580      4
            1  0  0  0     1.120      5
            0  1  0  0     1.120      6
            0  0  1  0     1.120      7
            1  0  0  0     2.080      8
            0  1  0  0     2.080      9
            0  0  1  0     2.080     10
            1  0  0  0     4.080     11
            0  1  0  0     4.080     12
            0  0  1  0     4.080     13
            2  0  0  0     2.000     14
            1  1  0  0     2.000     15
            1  0  1  0     2.000     16
            0  2  0  0     2.000     17
            0  1  1  0     2.000     18
            0  0  2  0     2.000     19
1
 ***************************************************************************************************



                                              ***********************
                                              *  T E C H N I C A L  *
                                              ***********************
  



 =============================================================
 P A R A L L E L I Z A T I O N  and  V E C T O R I Z A T I O N
 =============================================================
  
 Nr of parallel processes:                                1
 Maximum vector length in NumInt loops:                 128



 =====================
 S C F   U P D A T E S
 =====================
  
 Max. nr. of cycles:                               300
 Convergence criterion:                              0.0000000100
   secondary criterion:                              0.0000000100

 Mix parameter (when DIIS does not apply):           0.2000000000
 Special mix parameter for the first cycle:          1.0000000000
 Mixed ADIIS+SDIIS will be used                  
    Max number of expansion vectors:                10
    Pure ADIIS when Max([F,P]) is above              0.1000000000
    Pure SDIIS when Max([F,P]) is below              0.0010000000
 Automatic ElectronSmearing (in case of problematic SCF convergence) disabled



 =================
 P R E C I S I O N  ***  (General: NumInt, NeglectFunctionTails, ...)  ***
 =================
  

 NumInt:           Target precision:                12.0000000000
 -------           Initial precision:               10.0000000000
                   Min. precision (optimization):   10.0000000000

 Neglect Functions:          Basis functions:        0.1000000000E-13
 ------------------          Fit functions:          0.1000000000E-13



 ===========================
 L I N E A R   S C A L I N G
 ===========================
  

 Cut-off radii density fit:                        0.1000000000E-97
 Overlap cut-off criterion AO matrix elements:     0.1000000000E-97
 Cut-offs for Coulomb potential and fitted density:0.1000000000E-97
 Cut-off criterion for Coulomb multipole terms:    0.1000000000E-97
 Progressive Convergence parameter:                 0.000000000    
1
 ***************************************************************************************************



                                            ***************************
                                            *  C O M P U T A T I O N  *
                                            ***************************
  

 Number of elements of the density matrix on this node (used, total):       190       190



 ===========================================
 Numerical Integration : Fuzzy Cells (Becke)
 ===========================================
  
 Becke grid quality: VERYGOOD       
  
 Lebedev angular grid order:             min:  13 max:  41
 Nr. of radial points:                   min:  68 max:  68

 Total nr. of points:         68
 Nr. of blocks:                1
 Block length:                68
 Nr. of dummy points:          0


 Test of Precision of the Numerical Integration Grid
 ===================================================

 Integral of the Total Core Density:                   1.99999999865610
 Relative Error:                                      -6.720E-10



 ========================
 Density Fitting (zlmFit)
 ========================
  
 ZlmFit Fit Quality: VERYGOOD       
  
 Max L-expansion:                        min:   0 max:   0
 Nr. of radial interpolation points:     min: 140 max: 140



 =====
 S C F  ***  ScaSCF  ***
 =====
  

 CYCLE    1
 SCF Error: norm([F,P])=      0.000000000000, max([F,P])=      0.000000000000
 orbitals (Q,E):
 ---------------
 S :1...3            ( 2.00    -5.3654)  ( 0.00    -2.2073)  ( 0.00    23.6692)
 P :1...3            ( 4.00    -5.0045)  ( 0.00    -2.0150)  ( 0.00    -0.3846)
 D :1...1            ( 0.00    -2.0410)

 CYCLE    2
 SCF Error: norm([F,P])=      4.562993374873, max([F,P])=      2.528971113813
 orbitals (Q,E):
 ---------------
 S :1...2            ( 2.00    -0.1548)  ( 0.00     1.6948)
 P :1...2            ( 4.00     0.1773)  ( 0.00     0.9552)
 D :1...1            ( 0.00     1.4649)

 CYCLE    3
  SDIIS (wt  0.000):  0.3378  0.6622
 A-DIIS (wt  1.000):  0.4814  0.5186
  DIIS coefficients:  0.4814  0.5186
 SCF Error: norm([F,P])=      2.723155250500, max([F,P])=      1.798667049295
 orbitals (Q,E):
 ---------------
 S :1...2            ( 2.00    -1.1093)  ( 0.00     0.7549)
 P :1...2            ( 4.00    -0.5518)  ( 0.00     0.2590)
 D :1...1            ( 0.00     0.8910)

 CYCLE    4
  SDIIS (wt  0.000):  0.0919  0.9081
 A-DIIS (wt  1.000):  0.0000  1.0000
  DIIS coefficients:  0.0000  1.0000
 SCF Error: norm([F,P])=      0.289027138405, max([F,P])=      0.130648623511
 orbitals (Q,E):
 ---------------
 S :1...2            ( 2.00    -0.7707)  ( 0.00     0.9912)
 P :1...2            ( 4.00    -0.2284)  ( 0.00     0.4046)
 D :1...1            ( 0.00     1.1288)

 CYCLE    5
  SDIIS (wt  0.000):  0.0260  0.6740  0.3001
 A-DIIS (wt  1.000):  0.0000  0.5764  0.4236
  DIIS coefficients:  0.0000  0.5764  0.4236
 SCF Error: norm([F,P])=      0.416615089426, max([F,P])=      0.232643669786
 orbitals (Q,E):
 ---------------
 S :1...2            ( 2.00    -0.8764)  ( 0.00     0.9107)
 P :1...2            ( 4.00    -0.3280)  ( 0.00     0.3557)
 D :1...1            ( 0.00     1.0703)

 CYCLE    6
  SDIIS (wt  0.942):  0.0005  0.0237 -0.0203  0.9960
 A-DIIS (wt  0.058):  0.0000  0.0000  0.0000  1.0000
  DIIS coefficients:  0.0005  0.0224 -0.0191  0.9962
 SCF Error: norm([F,P])=      0.013723272809, max([F,P])=      0.006719036732
 orbitals (Q,E):
 ---------------
 S :1...2            ( 2.00    -0.8830)  ( 0.00     0.9058)
 P :1...2            ( 4.00    -0.3343)  ( 0.00     0.3521)
 D :1...1            ( 0.00     1.0657)

 CYCLE    7
  SDIIS (wt  1.000): -0.0000  0.0016  0.0023  0.0424  0.9537
  DIIS coefficients: -0.0000  0.0016  0.0023  0.0424  0.9537
 SCF Error: norm([F,P])=      0.001103645928, max([F,P])=      0.000634039171
 orbitals (Q,E):
 ---------------
 S :1...2            ( 2.00    -0.8827)  ( 0.00     0.9060)
 P :1...2            ( 4.00    -0.3340)  ( 0.00     0.3523)
 D :1...1            ( 0.00     1.0659)

 CYCLE    8
  SDIIS (wt  1.000): -0.0000 -0.0001  0.0000 -0.0032  0.0268  0.9765
  DIIS coefficients: -0.0000 -0.0001  0.0000 -0.0032  0.0268  0.9765
 SCF Error: norm([F,P])=      0.000035919805, max([F,P])=      0.000020263970
 orbitals (Q,E):
 ---------------
 S :1...2            ( 2.00    -0.8827)  ( 0.00     0.9060)
 P :1...2            ( 4.00    -0.3340)  ( 0.00     0.3522)
 D :1...1            ( 0.00     1.0659)

 CYCLE    9
  SDIIS (wt  1.000): -0.0000  0.0008  0.0188  0.9804
  DIIS coefficients: -0.0000  0.0008  0.0188  0.9804
 SCF Error: norm([F,P])=      0.000000326384, max([F,P])=      0.000000183924
 orbitals (Q,E):
 ---------------
 S :1...2            ( 2.00    -0.8827)  ( 0.00     0.9060)
 P :1...2            ( 4.00    -0.3340)  ( 0.00     0.3522)
 D :1...1            ( 0.00     1.0659)

 CYCLE   10
  SDIIS (wt  1.000):  0.0000  0.0003  0.9996
  DIIS coefficients:  0.0000  0.0003  0.9996
 SCF Error: norm([F,P])=      0.000000000559, max([F,P])=      0.000000000306
 orbitals (Q,E):
 ---------------
 S :1...2            ( 2.00    -0.8827)  ( 0.00     0.9060)
 P :1...2            ( 4.00    -0.3340)  ( 0.00     0.3522)
 D :1...1            ( 0.00     1.0659)

 SCF CONVERGED

 CYCLE   11
1
 ***************************************************************************************************



                                                *******************
                                                *  R E S U L T S  *
                                                *******************
  
 *** Using FIT density in Focky
  SDIIS (wt  1.000): -0.0000  0.0143  0.9857
  DIIS coefficients: -0.0000  0.0143  0.9857
 SCF Error: norm([F,P])=      0.000000000010, max([F,P])=      0.000000000006

 Scaled ZORA Orbital Energies, per Irrep and Spin:
 =================================================
                        Occup              E (au)              E (eV)       Diff (eV) with prev. cycle
                        -----      --------------------        ------       --------------------------
 S
               1        2.000     -0.88272313143209E+00       -24.020              -9.28E-11
               2        0.000      0.90601345014671E+00        24.654
               3        0.000      0.29578810816937E+02       804.880
 P
               1        4.000     -0.33400585272070E+00        -9.089              -8.94E-11
               2        0.000      0.35224911365993E+00         9.585
               3        0.000      0.38342927625315E+01       104.336
 D
               1        0.000      0.10658965783141E+01        29.005


 Partially Occupied:
               1 P                -0.33400585272070E+00
  
 HOMO :        1 S                -0.88272313143209E+00
 LUMO :        2 P                 0.35224911365993E+00
  


 Orbital Energies, all Irreps
 ========================================

 Irrep        no.  (spin)   Occup              E (au)                E (eV)
 ---------------------------------------------------------------------------
 S             1             2.00       -0.88272313143209E+00       -24.0201
 P             1             4.00       -0.33400585272070E+00        -9.0888
 P             2             0.00        0.35224911365993E+00         9.5852
 S             2             0.00        0.90601345014671E+00        24.6539
 D             1             0.00        0.10658965783141E+01        29.0045
 P             3             0.00        0.38342927625315E+01       104.3364
 S             3             0.00        0.29578810816937E+02       804.8804


 Scaled ZORA Orbital Energies of the Core Orbitals:
 ==================================================

 (Note that the atoms are grouped by atomtype, see the labels, and may hence NOT be in input order)

 AtomType  Orbital  Atom                   E (au)                        E (eV)
 --------  -------  ----           --------------------        ----------------
 O           1S        1          -0.18925919758629E+02                -515.000



 =======================================
 M U L L I K E N   P O P U L A T I O N S
 =======================================
  
 The survey below gives for each atom:
 a) the total charge (Z minus electrons)
 b) the net spin polarization (nr of electrons spin-A minus spin-B)
 c) for each spin the atomic electron valence density (integrated) per L-value.

 Atom              Charge    Spin density          S         P         D         F
 ----              ------    ------------       ------    ------    ------    ------
 1 O              -0.0000                       2.0000    4.0000    0.0000    0.0000

 Populations of individual BAS functions
 ----------------------------------------
 1 O            0.0005  0.9226  1.0966 -0.0196  0.3346  0.3346  0.3346  0.7512  0.7512  0.7512
                0.2476  0.2476  0.2476  0.0000  0.0000  0.0000  0.0000  0.0000  0.0000

 Gross Charges per Atom (Z minus electrons)
 ==========================================
            -0.0000
 Net Total: -0.00000000



 =======================================================================
 Electrostatic potential at the Nuclei due to electrons and other nuclei
 =======================================================================
  
         Atom                  Potential
         ----                  ---------
     1)   O                  22.20265662
 
 
 ========================
 No memory problems found
 ========================
 
 Maximum number of active allocate calls:         389
 
 *******************************************************************************

                             A D F   E X I T
 NORMAL TERMINATION



 =================
 Timing Statistics
 =================
  
 Total Used :                     CPU=        0.42      System=        0.03     Elapsed=        0.48

 Calls  Section                     ( Mean, Percentage )
 ---------------------------------------------------------------------------------------------------
     3  ><      ................      0.00    0.00             0.00   14.28             0.00    0.92
     1  INIT    ................      0.07   17.14             0.00    0.00             0.08   16.02
     1  GEOMET  ................      0.01    2.86             0.00   14.28             0.02    4.79
     1  INPUTA  ................      0.00    0.00             0.00   14.29             0.00    0.71
     1  MAINSY  ................      0.01    1.90             0.00   14.28             0.01    2.91
     1  SYMFIT  ................      0.00    0.00             0.00    0.00             0.00    0.34
     1  CORORT  ................      0.00    0.00             0.00    0.00             0.00    0.32
     1  SYMORB  ................      0.00    0.95             0.00    0.00             0.00    0.18
     1  CLSMAT  ................      0.00    0.95             0.00    0.00             0.01    1.21
     1  ORTHON  ................      0.00    0.95             0.00    0.00             0.01    1.09
     1  GENPT   ................      0.02    3.81             0.00    0.00             0.01    3.09
     1  PTBAS   ................      0.00    0.95             0.00    0.00             0.01    1.15
    11  FOCKY   ................      0.02   55.24             0.00   28.57             0.02   51.46
    11  FOCKTR  ................      0.00    1.90             0.00    0.00             0.00    1.56
    11  SDIIS   ................      0.00    5.71             0.00    0.00             0.00    6.31
     1  COREPS  ................      0.02    4.76             0.00    0.00             0.02    3.65
     1  POPAN   ................      0.00    0.95             0.00    0.00             0.01    1.13
     1  DEBYE   ................      0.00    0.00             0.00    0.00             0.00    0.40
     1  EXIT PROCEDURE .........      0.01    1.90             0.00   14.29             0.01    2.76


 Currently Open Files (EXIT00)
 ====================

 Unit    Access Format  Status   Type       Ident (file)
 -------------------------------------------------------
   3      SEQ    FORM   TRANSP  NORMAL      LOGFILE
                                          ( logfile )

 ***************************************************************************************************
 (LOGFILE)
 <Oct18-2020> <22:51:43>  DIRAC 2019  RunTime: Oct18-2020 22:51:43  Nodes: 1  Procs: 1
 <Oct18-2020> <22:51:43>  NORMAL TERMINATION
 <Oct18-2020> <22:51:43>  END
 <Oct18-2020> <22:51:43>  ADF 2019  RunTime: Oct18-2020 22:51:43  Nodes: 1  Procs: 1
 <Oct18-2020> <22:51:43>  Hydrogen (TZP)
 <Oct18-2020> <22:51:43>  RunType   : CREATE
 <Oct18-2020> <22:51:43>  Net Charge: 0 (Nuclei minus Electrons)
 <Oct18-2020> <22:51:43>  Symmetry  : ATOM
  Coordinates
    Atom         X           Y           Z   (Angstrom)
    1.H         0.000000    0.000000    0.000000
 <Oct18-2020> <22:51:43>  >>>> CORORT
 <Oct18-2020> <22:51:43>  >>>> CLSMAT
 <Oct18-2020> <22:51:43>  >>>> ORTHON
 <Oct18-2020> <22:51:43>  >>>> GENPT
 <Oct18-2020> <22:51:43>  Block Length=  64
 <Oct18-2020> <22:51:43>  >>>> PTBAS
 <Oct18-2020> <22:51:43>  >>>> CYCLE
 <Oct18-2020> <22:51:43>              |Error|         MaxErr       Wt(A-DIIS)
 <Oct18-2020> <22:51:43>      1      0.00000000      0.00000000
 <Oct18-2020> <22:51:43>      2      0.03153787      0.03011049
 <Oct18-2020> <22:51:43>      3      0.00861799      0.00834303    100.0
 <Oct18-2020> <22:51:43>      4      0.00173235      0.00171862      0.7
 <Oct18-2020> <22:51:43>      5      0.00004367      0.00003977      0.0
 <Oct18-2020> <22:51:43>      6      0.00000238      0.00000216      0.0
 <Oct18-2020> <22:51:43>      7      0.00000001      0.00000001      0.0
 <Oct18-2020> <22:51:44>  SCF converged
 <Oct18-2020> <22:51:44>      8      0.00000000      0.00000000      0.0
 <Oct18-2020> <22:51:44>  >>>> POPAN
 <Oct18-2020> <22:51:44>  >>>> DEBYE
 <Oct18-2020> <22:51:44>  NORMAL TERMINATION
 <Oct18-2020> <22:51:44>  END
 <Oct18-2020> <22:51:44>  DIRAC 2019  RunTime: Oct18-2020 22:51:44  Nodes: 1  Procs: 1
 <Oct18-2020> <22:51:44>  NORMAL TERMINATION
 <Oct18-2020> <22:51:44>  END
 <Oct18-2020> <22:51:44>  ADF 2019  RunTime: Oct18-2020 22:51:44  Nodes: 1  Procs: 1
 <Oct18-2020> <22:51:44>  Oxygen (TZP, 1s frozen)
 <Oct18-2020> <22:51:44>  RunType   : CREATE
 <Oct18-2020> <22:51:44>  Net Charge: 0 (Nuclei minus Electrons)
 <Oct18-2020> <22:51:44>  Symmetry  : ATOM
  Coordinates
    Atom         X           Y           Z   (Angstrom)
    1.O         0.000000    0.000000    0.000000
 <Oct18-2020> <22:51:44>  >>>> CORORT
 <Oct18-2020> <22:51:44>  >>>> CLSMAT
 <Oct18-2020> <22:51:44>  >>>> ORTHON
 <Oct18-2020> <22:51:44>  >>>> GENPT
 <Oct18-2020> <22:51:44>  Block Length=  68
 <Oct18-2020> <22:51:44>  >>>> PTBAS
 <Oct18-2020> <22:51:44>  >>>> CYCLE
 <Oct18-2020> <22:51:44>              |Error|         MaxErr       Wt(A-DIIS)
 <Oct18-2020> <22:51:44>      1      0.00000000      0.00000000
 <Oct18-2020> <22:51:44>      2      4.56299337      2.52897111
 <Oct18-2020> <22:51:44>      3      2.72315525      1.79866705    100.0
 <Oct18-2020> <22:51:44>      4      0.28902714      0.13064862    100.0
 <Oct18-2020> <22:51:44>      5      0.41661509      0.23264367    100.0
 <Oct18-2020> <22:51:44>      6      0.01372327      0.00671904      5.8
 <Oct18-2020> <22:51:44>      7      0.00110365      0.00063404      0.0
 <Oct18-2020> <22:51:44>      8      0.00003592      0.00002026      0.0
 <Oct18-2020> <22:51:44>      9      0.00000033      0.00000018      0.0
 <Oct18-2020> <22:51:44>     10      0.00000000      0.00000000      0.0
 <Oct18-2020> <22:51:44>  SCF converged
 <Oct18-2020> <22:51:44>     11      0.00000000      0.00000000      0.0
 <Oct18-2020> <22:51:44>  >>>> POPAN
 <Oct18-2020> <22:51:44>  >>>> DEBYE
 <Oct18-2020> <22:51:44>  NORMAL TERMINATION
 <Oct18-2020> <22:51:44>  END

 *******************************************************************************
 *                                                                             *
 *  -------------------------------------                                      *
 *   Amsterdam Density Functional  (ADF)         2019                          *
 *  -------------------------------------                                      *
 *                                               r79301 2019-11-09             *
 *                                                                             *
 *                                                                             *
 *                            =====================                            *
 *                            |                   |                            *
 *                            |     D I R A C     |                            *
 *                            |                   |                            *
 *                            =====================                            *
 *                                                                             *
 *                                                                             *
 *   Online information and documentation:  https://www.scm.com/support/       *
 *   E-mail:  support@scm.com   info@scm.com                                   *
 *                                                                             *
 *   Scientific publications using ADF results must be properly referenced     *
 *   See the User Manuals (or the web site) for recommended citations          *
 *   The terms and conditions of the End User License Agreement apply to       *
 *   the use of ADF, https://www.scm.com/license-terms/                        *
 *                                                                             *
 **********************  x86_64_linux_intel / intelmpi  ************************
 
 
 
  
 DIRAC 2019  RunTime: Oct18-2020 22:51:44  Nodes: 1  Procs: 1

 Temporary files are created in /scratch/kid_0.1162295213 (0x58465342)

1
 TUNGSTEN ATOM 4d CORE RELATIVISTIC, Point Nuc, A and c from 
 N J RN H ZN XION ANUC CLIGHT
 5000   22100.00000000197.36710137 74.00000000  0.00000000  183.950932  0.1370360E+03
  PH   PHI     EPS        DEL        DELRVR
  0.30  0.30     2500.00  0.00001000  0.00001000
 IDIRC  NC1  NDEBU NPRIN  IPUN IRCOR IWCOR
   1   300     0     0     0     0    14
   XALPHA      XLATTER      RNUC
  0.70000000  0.00000000  0.00000000 Point Charge
   XN   XL   XJ      XE          XZ      XDELL
  1.0  0.0  0.5   -2600.000       2.000     0.00000
  2.0  0.0  0.5    -425.000       2.000     0.00000
  2.0  1.0  0.5    -425.000       2.000     0.00000
  2.0  1.0  1.5    -425.000       4.000     0.00000
  3.0  0.0  0.5    -100.000       2.000     0.00000
  3.0  1.0  0.5    -100.000       2.000     0.00000
  3.0  1.0  1.5    -100.000       4.000     0.00000
  3.0  2.0  1.5     -80.000       4.000     0.00000
  3.0  2.0  2.5     -80.000       6.000     0.00000
  4.0  0.0  0.5     -22.000       2.000     0.00000
  4.0  1.0  0.5     -20.000       2.000     0.00000
  4.0  1.0  1.5     -20.000       4.000     0.00000
  4.0  2.0  1.5     -11.000       4.000     0.00000
  4.0  2.0  2.5     -11.000       6.000     0.00000
  4.0  3.0  2.5      -1.000       6.000     0.00000
  4.0  3.0  3.5      -1.000       8.000     0.00000
  5.0  0.0  0.5      -3.000       2.000     0.00000
  5.0  1.0  0.5      -2.200       2.000     0.00000
  5.0  1.0  1.5      -2.200       4.000     0.00000
  5.0  2.0  1.5      -0.500       4.000     0.00000
  5.0  2.0  2.5      -0.500       0.000     0.00000
  6.0  0.0  0.5      -0.200       2.000     0.00000
 ICORP=  0  NPCL=  0  DEMP=0.00  PEPS=0.000000
 R(1)=  0.1000000E-08 D=  0.1005080E+01 RNUC=  0.0000000E+00
 converged at cycle   63  DENSITY AVERAGING    0.1536
  MAXIMUM ERROR IN R.V(R) IS   0.78838062E-05
 Q,EY,EV,EZ,ESUM,ETOT,RHO  0.740000E+02 -0.431420E+03 -0.281568E+05 -0.403919E+05 -0.993885E+04 -0.161643E+05  0.726391E-09


 DIRAC CALCULATION
1                    TUNGSTEN ATOM 4d CORE RELATIVISTIC, Point Nuc, A and c from libtc


 EXCHANGE COEFFICIENT=  0.7000000           TAIL CORRECTION=  0.           NUCLEAR RADIUS=  0.000E+00
0                       ORBITAL    N    L    J     ELECTRONS     EIGENVALUE                DELTA OF EIGENV.

                          1S1/2  1.0  0.0  0.5     2.000       -0.2549514E+04                 0.5980248E-04
                          2S1/2  2.0  0.0  0.5     2.000       -0.4399118E+03                 0.5052420E-04
                          2P1/2  2.0  1.0  0.5     2.000       -0.4208427E+03                 0.5265062E-04
                          2P3/2  2.0  1.0  1.5     4.000       -0.3711192E+03                 0.5139441E-04
                          3S1/2  3.0  0.0  0.5     2.000       -0.1012881E+03                 0.3437035E-04
                          3P1/2  3.0  1.0  0.5     2.000       -0.9277148E+02                 0.3553128E-04
                          3P3/2  3.0  1.0  1.5     4.000       -0.8201733E+02                 0.3404634E-04
                          3D3/2  3.0  2.0  1.5     4.000       -0.6762803E+02                 0.3680712E-04
                          3D5/2  3.0  2.0  2.5     6.000       -0.6528623E+02                 0.3629511E-04
                          4S1/2  4.0  0.0  0.5     2.000       -0.2084139E+02                 0.1939427E-04
                          4P1/2  4.0  1.0  0.5     2.000       -0.1730737E+02                 0.1933978E-04
                          4P3/2  4.0  1.0  1.5     4.000       -0.1480597E+02                 0.1810922E-04
                          4D3/2  4.0  2.0  1.5     4.000       -0.8989319E+01                 0.1779394E-04
                          4D5/2  4.0  2.0  2.5     6.000       -0.8528007E+01                 0.1741170E-04
                          4F5/2  4.0  3.0  2.5     6.000       -0.1237480E+01                 0.1544089E-04
                          4F7/2  4.0  3.0  3.5     8.000       -0.1154634E+01                 0.1522033E-04
                          5S1/2  5.0  0.0  0.5     2.000       -0.2863514E+01                 0.7979521E-05
                          5P1/2  5.0  1.0  0.5     2.000       -0.1813289E+01                 0.7246225E-05
                          5P3/2  5.0  1.0  1.5     4.000       -0.1448762E+01                 0.6602120E-05
                          5D3/2  5.0  2.0  1.5     4.000       -0.1486933E+00                 0.3973088E-05
                          5D5/2  5.0  2.0  2.5     0.000       -0.1223153E+00                 0.3735081E-05
                          6S1/2  6.0  0.0  0.5     2.000       -0.1847434E+00                 0.1808440E-05


                                        NUCLEAR CHARGE=   74.000000
                            INTEGRAL OF CHARGE DENSITY=   74.000000
                           SUM OF THE ORBITAL ENERGIES=  -9938.8529
                                          TOTAL ENERGY= -16164.2530
                                        KINETIC ENERGY=  18217.9700
                             NUCLEAR ATTRACTION ENERGY= -40391.9132
                             ELECTRON REPULSION ENERGY=   6333.2551
                                       EXCHANGE ENERGY=   -323.5649

 *******************************************************************************

                             D I R A C   E X I T
 NORMAL TERMINATION



 =================
 Timing Statistics
 =================
  
 Total Used :                     CPU=        0.68      System=        0.00     Elapsed=        0.69

 Calls  Section                     ( Mean, Percentage )
 ---------------------------------------------------------------------------------------------------
     2  ><      ................      0.00    0.00             0.00    0.00             0.00    0.00
     1  EXIT PROCEDURE .........      0.68  100.00             0.00    0.00             0.69  100.00


 Currently Open Files (EXIT00)
 ====================

 Unit    Access Format  Status   Type       Ident (file)
 -------------------------------------------------------
   3      SEQ    FORM   TRANSP  NORMAL      LOGFILE
                                          ( logfile )
 
Create W   file=TZP-W.4d
XC
  GGA PBE
End
relativistic ZORA
Corepotentials t12.rel
End

 *******************************************************************************
 *                                                                             *
 *  -------------------------------------                                      *
 *   Amsterdam Density Functional  (ADF)         2019                          *
 *  -------------------------------------                                      *
 *                                               r79301 2019-11-09             *
 *                                                                             *
 *                                                                             *
 *                              =================                              *
 *                              |               |                              *
 *                              |     A D F     |                              *
 *                              |               |                              *
 *                              =================                              *
 *                                                                             *
 *                                                                             *
 *   Online information and documentation:  https://www.scm.com/support/       *
 *   E-mail:  support@scm.com   info@scm.com                                   *
 *                                                                             *
 *   Scientific publications using ADF results must be properly referenced     *
 *   See the User Manuals (or the web site) for recommended citations          *
 *   The terms and conditions of the End User License Agreement apply to       *
 *   the use of ADF, https://www.scm.com/license-terms/                        *
 *                                                                             *
 **********************  x86_64_linux_intel / intelmpi  ************************
 
 
 
  
 ADF 2019  RunTime: Oct18-2020 22:51:45  Nodes: 1  Procs: 1

 Temporary files are created in /scratch/kid_0.1334488063 (0x58465342)

 Tungsten (TZP, 4d frozen)



 ===========================
 A T T A C H E D   F I L E S
 ===========================
  
 CREATE - Data File:    TZP-W.4d
                        Tungsten (TZP, 4d frozen)
 Core Potentials:
         file : t12.rel



 ===============================
 M O D E L   P A R A M E T E R S
 ===============================
  
 DENSITY FUNCTIONAL POTENTIAL (scf)
    LDA:                               PW92                                    == Not Default ==
    Gradient Corrections:              PBEc PBEx                               == Not Default ==

 SPIN  (restricted / unrestr.)
    Molecule:                          Restricted                               

 OTHER ASPECTS
    Relativistic Corrections:          scalar (ZORA,MAPA)                      == Not Default ==

    Nuclear Charge Density Model:      Point Charge Nuclei                      
    Core Treatment:                    Frozen Orbital(s)                        

    Hyperfine or Zeeman Interaction:   ---                                      



 =====================================
 S Y M M E T R Y ,   E L E C T R O N S
 =====================================
  
 Symmetry: ATOM

 Irreducible Representations, including subspecies
 -------------------------------------------------
 S
 P:x  P:y  P:z
 D:z2  D:x2-y2  D:xy  D:xz  D:yz
 F:z3  F:z  F:xyz  F:z2x  F:z2y  F:x  F:y


 Configuration of Valence Electrons
 ==================================

          Occupation Numbers
          -------------------------------------------------
 S        2*2
 P        6
 D        4
 F        14
          -------------------------------------------------

 Total:   28

 Net Charge: 0 (Nuclei minus Electrons)

 Preset values for MO occupations will be applied through SCF cycle no. 1000000
 Thereafter, the program will assign electrons to MOs that are spatially
 similar to the occupied MOs in a "reference" cycle ("KeepOrbitals").
 The reference cycle is always the PREVIOUS cycle: it will evolve with
 the SCF procedure.



 ================================
 (Slater-type)  F U N C T I O N S  ***  (Basis and Fit)  ***
 ================================
  

 Atom Type    1  (W)
 ==============

 Valence Basis Sets:  25
 -----------------------
   1 S   52.000000
   2 S   33.250000
   3 S   19.100000
   4 S   11.650000
   2 P   36.850000
   3 P   16.500000
   4 P   11.550000
   3 D   20.100000
   4 D   10.300000
   1 S  163.900000
   5 S    6.050000
   5 S    3.950000
   6 S    2.850000
   6 S    1.800000
   6 S    1.140000
   5 P    5.900000
   5 P    4.000000
   5 P    2.700000
   5 D    4.150000
   5 D    2.250000
   5 D    1.200000
   4 F   13.550000
   4 F    7.050000
   4 F    3.550000
   6 P    1.800000

 Frozen Core Shells
 ------------------
    S:  4
    P:  3
    D:  2


 BAS: List of all Elementary Cartesian Basis Functions
 =====================================================

 The numbering in the list below (to the right of the function characteristics) is referred
 to in print-outs of MO eigenvectors and Mulliken populations in the BAS representation
 (as contrasted to the SFO representation).

 Notes:
 1. The functions are characterized by a polynomial prefactor (powers of x,y,z and r) and
    an exponential decay factor alpha.
 2. Since the basis sets are specific for an atom TYPE, the individual functions occur on
    all atoms of that type.
 3. The word 'Core' in the left margin signals that it is a Core Function (CF) : not a
    degree of freedom in the valence set, but only used to ensure orthogonalization of
    the other valence basis functions on the frozen Core Orbitals.


 (power of) X  Y  Z  R     Alpha  on Atom
            ==========     =====     ==========

 W                                    1
                                  ---------------------------------------------------------------------------
    Core    0  0  0  0    52.000      1
    Core    0  0  0  1    33.250      2
    Core    0  0  0  2    19.100      3
    Core    0  0  0  3    11.650      4
    Core    1  0  0  0    36.850      5
    Core    0  1  0  0    36.850      6
    Core    0  0  1  0    36.850      7
    Core    1  0  0  1    16.500      8
    Core    0  1  0  1    16.500      9
    Core    0  0  1  1    16.500     10
    Core    1  0  0  2    11.550     11
    Core    0  1  0  2    11.550     12
    Core    0  0  1  2    11.550     13
    Core    2  0  0  0    20.100     14
    Core    1  1  0  0    20.100     15
    Core    1  0  1  0    20.100     16
    Core    0  2  0  0    20.100     17
    Core    0  1  1  0    20.100     18
    Core    0  0  2  0    20.100     19
    Core    2  0  0  1    10.300     20
    Core    1  1  0  1    10.300     21
    Core    1  0  1  1    10.300     22
    Core    0  2  0  1    10.300     23
    Core    0  1  1  1    10.300     24
    Core    0  0  2  1    10.300     25
            0  0  0  0   163.900     26
            0  0  0  4     6.050     27
            0  0  0  4     3.950     28
            0  0  0  5     2.850     29
            0  0  0  5     1.800     30
            0  0  0  5     1.140     31
            1  0  0  3     5.900     32
            0  1  0  3     5.900     33
            0  0  1  3     5.900     34
            1  0  0  3     4.000     35
            0  1  0  3     4.000     36
            0  0  1  3     4.000     37
            1  0  0  3     2.700     38
            0  1  0  3     2.700     39
            0  0  1  3     2.700     40
            2  0  0  2     4.150     41
            1  1  0  2     4.150     42
            1  0  1  2     4.150     43
            0  2  0  2     4.150     44
            0  1  1  2     4.150     45
            0  0  2  2     4.150     46
            2  0  0  2     2.250     47
            1  1  0  2     2.250     48
            1  0  1  2     2.250     49
            0  2  0  2     2.250     50
            0  1  1  2     2.250     51
            0  0  2  2     2.250     52
            2  0  0  2     1.200     53
            1  1  0  2     1.200     54
            1  0  1  2     1.200     55
            0  2  0  2     1.200     56
            0  1  1  2     1.200     57
            0  0  2  2     1.200     58
            3  0  0  0    13.550     59
            2  1  0  0    13.550     60
            2  0  1  0    13.550     61
            1  2  0  0    13.550     62
            1  1  1  0    13.550     63
            1  0  2  0    13.550     64
            0  3  0  0    13.550     65
            0  2  1  0    13.550     66
            0  1  2  0    13.550     67
            0  0  3  0    13.550     68
            3  0  0  0     7.050     69
            2  1  0  0     7.050     70
            2  0  1  0     7.050     71
            1  2  0  0     7.050     72
            1  1  1  0     7.050     73
            1  0  2  0     7.050     74
            0  3  0  0     7.050     75
            0  2  1  0     7.050     76
            0  1  2  0     7.050     77
            0  0  3  0     7.050     78
            3  0  0  0     3.550     79
            2  1  0  0     3.550     80
            2  0  1  0     3.550     81
            1  2  0  0     3.550     82
            1  1  1  0     3.550     83
            1  0  2  0     3.550     84
            0  3  0  0     3.550     85
            0  2  1  0     3.550     86
            0  1  2  0     3.550     87
            0  0  3  0     3.550     88
            1  0  0  4     1.800     89
            0  1  0  4     1.800     90
            0  0  1  4     1.800     91

 Total number of charge fitting functions (nprimf)       329
 Total number of Cartesian basis functions (naos)         91
 Total number of Cartesian core functions  (ncos)         25



 BAS: List of all Elementary Cartesian Basis Functions
 =====================================================

 The numbering in the list below (to the right of the function characteristics) is referred
 to in print-outs of MO eigenvectors and Mulliken populations in the BAS representation
 (as contrasted to the SFO representation).

 Notes:
 1. The functions are characterized by a polynomial prefactor (powers of x,y,z and r) and
    an exponential decay factor alpha.
 2. Since the basis sets are specific for an atom TYPE, the individual functions occur on
    all atoms of that type.
 3. The word 'Core' in the left margin signals that it is a Core Function (CF) : not a
    degree of freedom in the valence set, but only used to ensure orthogonalization of
    the other valence basis functions on the frozen Core Orbitals.


 (power of) X  Y  Z  R     Alpha  on Atom
            ==========     =====     ==========

 W                                    1
                                  ---------------------------------------------------------------------------
    Core    0  0  0  0    52.000      1
    Core    0  0  0  1    33.250      2
    Core    0  0  0  2    19.100      3
    Core    0  0  0  3    11.650      4
    Core    1  0  0  0    36.850      5
    Core    0  1  0  0    36.850      6
    Core    0  0  1  0    36.850      7
    Core    1  0  0  1    16.500      8
    Core    0  1  0  1    16.500      9
    Core    0  0  1  1    16.500     10
    Core    1  0  0  2    11.550     11
    Core    0  1  0  2    11.550     12
    Core    0  0  1  2    11.550     13
    Core    2  0  0  0    20.100     14
    Core    1  1  0  0    20.100     15
    Core    1  0  1  0    20.100     16
    Core    0  2  0  0    20.100     17
    Core    0  1  1  0    20.100     18
    Core    0  0  2  0    20.100     19
    Core    2  0  0  1    10.300     20
    Core    1  1  0  1    10.300     21
    Core    1  0  1  1    10.300     22
    Core    0  2  0  1    10.300     23
    Core    0  1  1  1    10.300     24
    Core    0  0  2  1    10.300     25
            0  0  0  0   163.900     26
            0  0  0  4     6.050     27
            0  0  0  4     3.950     28
            0  0  0  5     2.850     29
            0  0  0  5     1.800     30
            0  0  0  5     1.140     31
            1  0  0  3     5.900     32
            0  1  0  3     5.900     33
            0  0  1  3     5.900     34
            1  0  0  3     4.000     35
            0  1  0  3     4.000     36
            0  0  1  3     4.000     37
            1  0  0  3     2.700     38
            0  1  0  3     2.700     39
            0  0  1  3     2.700     40
            2  0  0  2     4.150     41
            1  1  0  2     4.150     42
            1  0  1  2     4.150     43
            0  2  0  2     4.150     44
            0  1  1  2     4.150     45
            0  0  2  2     4.150     46
            2  0  0  2     2.250     47
            1  1  0  2     2.250     48
            1  0  1  2     2.250     49
            0  2  0  2     2.250     50
            0  1  1  2     2.250     51
            0  0  2  2     2.250     52
            2  0  0  2     1.200     53
            1  1  0  2     1.200     54
            1  0  1  2     1.200     55
            0  2  0  2     1.200     56
            0  1  1  2     1.200     57
            0  0  2  2     1.200     58
            3  0  0  0    13.550     59
            2  1  0  0    13.550     60
            2  0  1  0    13.550     61
            1  2  0  0    13.550     62
            1  1  1  0    13.550     63
            1  0  2  0    13.550     64
            0  3  0  0    13.550     65
            0  2  1  0    13.550     66
            0  1  2  0    13.550     67
            0  0  3  0    13.550     68
            3  0  0  0     7.050     69
            2  1  0  0     7.050     70
            2  0  1  0     7.050     71
            1  2  0  0     7.050     72
            1  1  1  0     7.050     73
            1  0  2  0     7.050     74
            0  3  0  0     7.050     75
            0  2  1  0     7.050     76
            0  1  2  0     7.050     77
            0  0  3  0     7.050     78
            3  0  0  0     3.550     79
            2  1  0  0     3.550     80
            2  0  1  0     3.550     81
            1  2  0  0     3.550     82
            1  1  1  0     3.550     83
[...]
 <Oct18-2020> <23:07:50>      6      0.27928066      0.06500236    100.0
 <Oct18-2020> <23:07:50>      7      0.10345220      0.02017976    100.0
 <Oct18-2020> <23:07:51>      8      0.01324388      0.00284241      1.9
 <Oct18-2020> <23:07:51>      9      0.00134054      0.00032988      0.0
 <Oct18-2020> <23:07:52>     10      0.00043642      0.00008998      0.0
 <Oct18-2020> <23:07:53>     11      0.00030131      0.00006188      0.0
 <Oct18-2020> <23:07:53>     12      0.00008939      0.00001534      0.0
 <Oct18-2020> <23:07:54>     13      0.00001369      0.00000267      0.0
 <Oct18-2020> <23:07:54>     14      0.00000333      0.00000057      0.0
 <Oct18-2020> <23:07:55>  SCF converged
 <Oct18-2020> <23:07:55>     15      0.00000057      0.00000010      0.0
 <Oct18-2020> <23:07:55>  >>>> TOTEN
 <Oct18-2020> <23:07:55>  >>>> POPAN
 <Oct18-2020> <23:07:55>  >>>> DEBYE
 <Oct18-2020> <23:07:55>  >>>> ENGRAD
 <Oct18-2020> <23:07:56>  Geometry symmetry displacement    2 out of    8
  Coordinates in Geometry Cycle 39
    Atom         X           Y           Z   (Angstrom)
    1.W        -0.963080    0.310761   -0.053757
    2.O        -1.022953    0.345935    1.660240
    3.O         0.981859   -0.381342   -0.417711
    4.O        -2.705925    1.477363   -0.101217
    5.O        -1.024774    0.987880   -2.159543
    6.O        -1.566156   -1.232265   -0.498657
    7.O         0.214144    2.176868   -0.086848
    8.H         0.791780    2.534376   -0.793711
    9.H         0.429512    2.661663    0.738604
   10.H        -3.304347    1.408272   -0.878775
   11.H        -1.361870    0.390796   -2.862136
   12.H        -1.143354    1.904302   -2.488788
   13.H         1.127188   -1.354472   -0.411917
   14.H         1.737860    0.034098    0.055047
   15.H        -3.273210    1.472950    0.702948
 <Oct18-2020> <23:07:56>  >>>> CORORT
 <Oct18-2020> <23:07:56>  >>>> CLSMAT
 <Oct18-2020> <23:07:56>  >>>> ORTHON
 <Oct18-2020> <23:07:56>  >>>> GENPT
 <Oct18-2020> <23:07:57>  Block Length= 128
 <Oct18-2020> <23:07:57>  >>>> PTBAS
 <Oct18-2020> <23:07:57>  combining surface points...
 <Oct18-2020> <23:07:57>  combining surface points...
 <Oct18-2020> <23:07:57>  >>>> CYCLE
 <Oct18-2020> <23:07:58>              |Error|         MaxErr       Wt(A-DIIS)
 <Oct18-2020> <23:07:58>      1      0.12284189      0.02547674
 <Oct18-2020> <23:07:59>      2      0.56074273      0.15954382    100.0
 <Oct18-2020> <23:08:00>      3      0.13141727      0.02628941    100.0
 <Oct18-2020> <23:08:00>      4      0.05877184      0.00947807      8.6
 <Oct18-2020> <23:08:01>      5      0.07294744      0.01320764    100.0
 <Oct18-2020> <23:08:01>      6      0.27045513      0.06338822    100.0
 <Oct18-2020> <23:08:02>      7      0.09890132      0.01919358    100.0
 <Oct18-2020> <23:08:03>      8      0.01076875      0.00234739      1.4
 <Oct18-2020> <23:08:03>      9      0.00141153      0.00037747      0.0
 <Oct18-2020> <23:08:04>     10      0.00046177      0.00009863      0.0
 <Oct18-2020> <23:08:05>     11      0.00029791      0.00006167      0.0
 <Oct18-2020> <23:08:05>     12      0.00008381      0.00001478      0.0
 <Oct18-2020> <23:08:06>     13      0.00001484      0.00000304      0.0
 <Oct18-2020> <23:08:06>     14      0.00000347      0.00000061      0.0
 <Oct18-2020> <23:08:06>  SCF converged
 <Oct18-2020> <23:08:07>     15      0.00000058      0.00000011      0.0
 <Oct18-2020> <23:08:07>  >>>> TOTEN
 <Oct18-2020> <23:08:07>  >>>> POPAN
 <Oct18-2020> <23:08:07>  >>>> DEBYE
 <Oct18-2020> <23:08:07>  >>>> ENGRAD
 <Oct18-2020> <23:08:08>  Old frequency:   -238.48716, new:    193.60108
 <Oct18-2020> <23:08:08>  Geometry symmetry displacement    3 out of    8
  Coordinates in Geometry Cycle 39
    Atom         X           Y           Z   (Angstrom)
    1.W        -0.963082    0.310762   -0.053775
    2.O        -1.022997    0.345847    1.660221
    3.O         0.981745   -0.381678   -0.417941
    4.O        -2.705920    1.477440   -0.101154
    5.O        -1.024763    0.988041   -2.159534
    6.O        -1.566251   -1.232235   -0.498608
    7.O         0.214671    2.176368   -0.086561
    8.H         0.787830    2.538127   -0.794878
    9.H         0.427572    2.663360    0.738227
   10.H        -3.303804    1.408958   -0.879184
   11.H        -1.360915    0.390473   -2.862171
   12.H        -1.144176    1.904256   -2.489043
   13.H         1.128772   -1.354480   -0.402985
   14.H         1.737942    0.039485    0.049417
   15.H        -3.273789    1.471977    0.702606
 <Oct18-2020> <23:08:08>  >>>> CORORT
 <Oct18-2020> <23:08:08>  >>>> CLSMAT
 <Oct18-2020> <23:08:08>  >>>> ORTHON
 <Oct18-2020> <23:08:08>  >>>> GENPT
 <Oct18-2020> <23:08:08>  Block Length= 128
 <Oct18-2020> <23:08:09>  >>>> PTBAS
 <Oct18-2020> <23:08:09>  combining surface points...
 <Oct18-2020> <23:08:09>  combining surface points...
 <Oct18-2020> <23:08:09>  >>>> CYCLE
 <Oct18-2020> <23:08:10>              |Error|         MaxErr       Wt(A-DIIS)
 <Oct18-2020> <23:08:10>      1      0.12278271      0.02547645
 <Oct18-2020> <23:08:11>      2      0.56222807      0.15941866    100.0
 <Oct18-2020> <23:08:11>      3      0.13023817      0.02532052    100.0
 <Oct18-2020> <23:08:12>      4      0.05879048      0.00967413      8.8
 <Oct18-2020> <23:08:13>      5      0.07392684      0.01334572    100.0
 <Oct18-2020> <23:08:13>      6      0.25510859      0.05923771    100.0
 <Oct18-2020> <23:08:14>      7      0.09088545      0.01699231    100.0
 <Oct18-2020> <23:08:15>      8      0.00657342      0.00143181      0.4
 <Oct18-2020> <23:08:15>      9      0.00157810      0.00040646      0.0
 <Oct18-2020> <23:08:16>     10      0.00029667      0.00004454      0.0
 <Oct18-2020> <23:08:16>     11      0.00012071      0.00001755      0.0
 <Oct18-2020> <23:08:17>     12      0.00002719      0.00000767      0.0
 <Oct18-2020> <23:08:18>     13      0.00003449      0.00000863      0.0
 <Oct18-2020> <23:08:18>     14      0.00000490      0.00000114      0.0
 <Oct18-2020> <23:08:19>     15      0.00000070      0.00000015      0.0
 <Oct18-2020> <23:08:19>  SCF converged
 <Oct18-2020> <23:08:19>     16      0.00000016      0.00000003      0.0
 <Oct18-2020> <23:08:19>  >>>> TOTEN
 <Oct18-2020> <23:08:20>  >>>> POPAN
 <Oct18-2020> <23:08:20>  >>>> DEBYE
 <Oct18-2020> <23:08:20>  >>>> ENGRAD
 <Oct18-2020> <23:08:21>  Geometry symmetry displacement    4 out of    8
  Coordinates in Geometry Cycle 39
    Atom         X           Y           Z   (Angstrom)
    1.W        -0.963091    0.310745   -0.053763
    2.O        -1.022935    0.345987    1.660242
    3.O         0.981807   -0.381389   -0.417700
    4.O        -2.705945    1.477315   -0.101728
    5.O        -1.024340    0.988073   -2.159621
    6.O        -1.566190   -1.232255   -0.498723
    7.O         0.214106    2.176834   -0.086601
    8.H         0.790421    2.534998   -0.794206
    9.H         0.430782    2.661009    0.738873
   10.H        -3.309119    1.401990   -0.875049
   11.H        -1.360601    0.390285   -2.862022
   12.H        -1.147678    1.904258   -2.487802
   13.H         1.127320   -1.354487   -0.411493
   14.H         1.737901    0.034463    0.054541
   15.H        -3.268307    1.480290    0.705867
 <Oct18-2020> <23:08:21>  >>>> CORORT
 <Oct18-2020> <23:08:21>  >>>> CLSMAT
 <Oct18-2020> <23:08:21>  >>>> ORTHON
 <Oct18-2020> <23:08:21>  >>>> GENPT
 <Oct18-2020> <23:08:21>  Block Length= 128
 <Oct18-2020> <23:08:21>  >>>> PTBAS
 <Oct18-2020> <23:08:21>  combining surface points...
 <Oct18-2020> <23:08:21>  combining surface points...
 <Oct18-2020> <23:08:21>  >>>> CYCLE
 <Oct18-2020> <23:08:22>              |Error|         MaxErr       Wt(A-DIIS)
 <Oct18-2020> <23:08:22>      1      0.12243821      0.02537087
 <Oct18-2020> <23:08:23>      2      0.55932382      0.15870478    100.0
 <Oct18-2020> <23:08:24>      3      0.13581031      0.02891256    100.0
 <Oct18-2020> <23:08:24>      4      0.05985822      0.00957374      8.7
 <Oct18-2020> <23:08:25>      5      0.07140439      0.01292946    100.0
 <Oct18-2020> <23:08:26>      6      0.28257539      0.06615307    100.0
 <Oct18-2020> <23:08:26>      7      0.10563660      0.02098037    100.0
 <Oct18-2020> <23:08:27>      8      0.01482718      0.00315202      2.2
 <Oct18-2020> <23:08:28>      9      0.00136508      0.00034120      0.0
 <Oct18-2020> <23:08:28>     10      0.00056868      0.00012987      0.0
 <Oct18-2020> <23:08:29>     11      0.00031595      0.00006749      0.0
 <Oct18-2020> <23:08:29>     12      0.00008305      0.00001227      0.0
 <Oct18-2020> <23:08:30>     13      0.00001288      0.00000214      0.0
 <Oct18-2020> <23:08:31>     14      0.00000316      0.00000053      0.0
 <Oct18-2020> <23:08:31>  SCF converged
 <Oct18-2020> <23:08:31>     15      0.00000056      0.00000010      0.0
 <Oct18-2020> <23:08:31>  >>>> TOTEN
 <Oct18-2020> <23:08:32>  >>>> POPAN
 <Oct18-2020> <23:08:32>  >>>> DEBYE
 <Oct18-2020> <23:08:32>  >>>> ENGRAD
 <Oct18-2020> <23:08:33>  Old frequency:   -231.59164, new:    180.94124
 <Oct18-2020> <23:08:33>  Geometry symmetry displacement    5 out of    8
  Coordinates in Geometry Cycle 39
    Atom         X           Y           Z   (Angstrom)
    1.W        -0.963050    0.310747   -0.053765
    2.O        -1.023037    0.345918    1.660235
    3.O         0.981786   -0.381306   -0.417798
    4.O        -2.705885    1.477458   -0.101444
    5.O        -1.024599    0.987832   -2.159694
    6.O        -1.566477   -1.232123   -0.498706
    7.O         0.214864    2.176089   -0.086357
    8.H         0.787187    2.539066   -0.794708
    9.H         0.422964    2.666891    0.737412
   10.H        -3.306723    1.405142   -0.876841
   11.H        -1.361465    0.390336   -2.862052
   12.H        -1.145948    1.904097   -2.488357
   13.H         1.127879   -1.354301   -0.410341
   14.H         1.737764    0.035759    0.053564
   15.H        -3.270682    1.476629    0.704455
 <Oct18-2020> <23:08:33>  >>>> CORORT
 <Oct18-2020> <23:08:33>  >>>> CLSMAT
 <Oct18-2020> <23:08:33>  >>>> ORTHON
 <Oct18-2020> <23:08:33>  >>>> GENPT
 <Oct18-2020> <23:08:33>  Block Length= 128
 <Oct18-2020> <23:08:33>  >>>> PTBAS
 <Oct18-2020> <23:08:33>  combining surface points...
 <Oct18-2020> <23:08:33>  combining surface points...
 <Oct18-2020> <23:08:33>  >>>> CYCLE
 <Oct18-2020> <23:08:34>              |Error|         MaxErr       Wt(A-DIIS)
 <Oct18-2020> <23:08:34>      1      0.12279749      0.02544214
 <Oct18-2020> <23:08:35>      2      0.56124161      0.15928440    100.0
 <Oct18-2020> <23:08:36>      3      0.13005369      0.02529355    100.0
 <Oct18-2020> <23:08:36>      4      0.05899633      0.00985942      8.9
 <Oct18-2020> <23:08:37>      5      0.07434640      0.01336664    100.0
 <Oct18-2020> <23:08:38>      6      0.25337942      0.05910477    100.0
 <Oct18-2020> <23:08:38>      7      0.08979829      0.01684137    100.0
 <Oct18-2020> <23:08:39>      8      0.00593650      0.00126896      0.3
 <Oct18-2020> <23:08:40>      9      0.00160188      0.00040864      0.0
 <Oct18-2020> <23:08:40>     10      0.00030587      0.00004542      0.0
 <Oct18-2020> <23:08:41>     11      0.00016580      0.00003389      0.0
 <Oct18-2020> <23:08:41>     12      0.00009222      0.00002325      0.0
 <Oct18-2020> <23:08:42>     13      0.00002111      0.00000558      0.0
 <Oct18-2020> <23:08:42>     14      0.00000428      0.00000078      0.0
 <Oct18-2020> <23:08:43>  SCF converged
 <Oct18-2020> <23:08:43>     15      0.00000071      0.00000015      0.0
 <Oct18-2020> <23:08:43>  >>>> TOTEN
 <Oct18-2020> <23:08:43>  >>>> POPAN
 <Oct18-2020> <23:08:43>  >>>> DEBYE
 <Oct18-2020> <23:08:43>  >>>> ENGRAD
 <Oct18-2020> <23:08:44>  Geometry symmetry displacement    6 out of    8
  Coordinates in Geometry Cycle 39
    Atom         X           Y           Z   (Angstrom)
    1.W        -0.963123    0.310761   -0.053773
    2.O        -1.022895    0.345916    1.660228
    3.O         0.981765   -0.381761   -0.417844
    4.O        -2.705979    1.477297   -0.101439
    5.O        -1.024504    0.988282   -2.159462
    6.O        -1.565964   -1.232367   -0.498625
    7.O         0.213914    2.177114   -0.086805
    8.H         0.791064    2.534059   -0.794376
    9.H         0.435390    2.657478    0.739688
   10.H        -3.306201    1.405806   -0.877392
   11.H        -1.360050    0.390421   -2.862141
   12.H        -1.145907    1.904417   -2.488488
   13.H         1.128213   -1.354666   -0.404136
   14.H         1.738079    0.038189    0.050394
   15.H        -3.271414    1.475638    0.704019
 <Oct18-2020> <23:08:45>  >>>> CORORT
 <Oct18-2020> <23:08:45>  >>>> CLSMAT
 <Oct18-2020> <23:08:45>  >>>> ORTHON
 <Oct18-2020> <23:08:45>  >>>> GENPT
 <Oct18-2020> <23:08:45>  Block Length= 128
 <Oct18-2020> <23:08:45>  >>>> PTBAS
 <Oct18-2020> <23:08:45>  combining surface points...
 <Oct18-2020> <23:08:45>  combining surface points...
 <Oct18-2020> <23:08:45>  >>>> CYCLE
 <Oct18-2020> <23:08:46>              |Error|         MaxErr       Wt(A-DIIS)
 <Oct18-2020> <23:08:46>      1      0.12372784      0.02548027
 <Oct18-2020> <23:08:47>      2      0.56156686      0.15933994    100.0
 <Oct18-2020> <23:08:48>      3      0.13123459      0.02612359    100.0
 <Oct18-2020> <23:08:48>      4      0.05823719      0.00913783      8.2
 <Oct18-2020> <23:08:49>      5      0.07221369      0.01316112    100.0
 <Oct18-2020> <23:08:50>      6      0.27093706      0.06282011    100.0
 <Oct18-2020> <23:08:50>      7      0.09952969      0.01906622    100.0
 <Oct18-2020> <23:08:51>      8      0.01150651      0.00250821      1.5
 <Oct18-2020> <23:08:51>      9      0.00138610      0.00035839      0.0
 <Oct18-2020> <23:08:52>     10      0.00044638      0.00009210      0.0
 <Oct18-2020> <23:08:53>     11      0.00030985      0.00006349      0.0
 <Oct18-2020> <23:08:53>     12      0.00008836      0.00001571      0.0
 <Oct18-2020> <23:08:54>     13      0.00001443      0.00000292      0.0
 <Oct18-2020> <23:08:54>     14      0.00000347      0.00000061      0.0
 <Oct18-2020> <23:08:55>  SCF converged
 <Oct18-2020> <23:08:55>     15      0.00000059      0.00000011      0.0
 <Oct18-2020> <23:08:55>  >>>> TOTEN
 <Oct18-2020> <23:08:55>  >>>> POPAN
 <Oct18-2020> <23:08:55>  >>>> DEBYE
 <Oct18-2020> <23:08:55>  >>>> ENGRAD
 <Oct18-2020> <23:08:56>  Old frequency:   -189.79070, new:    353.29683
 <Oct18-2020> <23:08:56>  Geometry symmetry displacement    7 out of    8
  Coordinates in Geometry Cycle 39
    Atom         X           Y           Z   (Angstrom)
    1.W        -0.963073    0.310783   -0.053711
    2.O        -1.022772    0.346182    1.660279
    3.O         0.981462   -0.381694   -0.418475
    4.O        -2.706118    1.477184   -0.101921
    5.O        -1.024365    0.988251   -2.159507
    6.O        -1.566384   -1.232255   -0.498285
    7.O         0.214435    2.176494   -0.086059
    8.H         0.786427    2.538098   -0.795401
    9.H         0.430923    2.661439    0.738995
   10.H        -3.305604    1.405153   -0.878403
   11.H        -1.355596    0.388566   -2.862692
   12.H        -1.148345    1.903688   -2.489505
   13.H         1.127586   -1.354675   -0.410520
   14.H         1.738272    0.035822    0.051116
   15.H        -3.272380    1.474203    0.702969
 <Oct18-2020> <23:08:57>  >>>> CORORT
 <Oct18-2020> <23:08:57>  >>>> CLSMAT
 <Oct18-2020> <23:08:57>  >>>> ORTHON
 <Oct18-2020> <23:08:57>  >>>> GENPT
 <Oct18-2020> <23:08:57>  Block Length= 128
 <Oct18-2020> <23:08:57>  >>>> PTBAS
 <Oct18-2020> <23:08:57>  combining surface points...
 <Oct18-2020> <23:08:57>  combining surface points...
 <Oct18-2020> <23:08:57>  >>>> CYCLE
 <Oct18-2020> <23:08:58>              |Error|         MaxErr       Wt(A-DIIS)
 <Oct18-2020> <23:08:58>      1      0.12318263      0.02546384
 <Oct18-2020> <23:08:59>      2      0.56065920      0.15941832    100.0
 <Oct18-2020> <23:09:00>      3      0.13210735      0.02666208    100.0
 <Oct18-2020> <23:09:00>      4      0.05929707      0.00971070      8.8
 <Oct18-2020> <23:09:01>      5      0.07341230      0.01321897    100.0
 <Oct18-2020> <23:09:02>      6      0.27427874      0.06446443    100.0
 <Oct18-2020> <23:09:02>      7      0.10051427      0.01971230    100.0
 <Oct18-2020> <23:09:03>      8      0.01127599      0.00244021      1.5
 <Oct18-2020> <23:09:03>      9      0.00138886      0.00036357      0.0
 <Oct18-2020> <23:09:04>     10      0.00042270      0.00008687      0.0
 <Oct18-2020> <23:09:05>     11      0.00028350      0.00005873      0.0
 <Oct18-2020> <23:09:05>     12      0.00008591      0.00001567      0.0
 <Oct18-2020> <23:09:06>     13      0.00001474      0.00000309      0.0
 <Oct18-2020> <23:09:06>     14      0.00000341      0.00000059      0.0
 <Oct18-2020> <23:09:06>  SCF converged
 <Oct18-2020> <23:09:07>     15      0.00000058      0.00000011      0.0
 <Oct18-2020> <23:09:07>  >>>> TOTEN
 <Oct18-2020> <23:09:07>  >>>> POPAN
 <Oct18-2020> <23:09:07>  >>>> DEBYE
 <Oct18-2020> <23:09:07>  >>>> ENGRAD
 <Oct18-2020> <23:09:08>  Geometry symmetry displacement    8 out of    8
  Coordinates in Geometry Cycle 39
    Atom         X           Y           Z   (Angstrom)
    1.W        -0.963100    0.310724   -0.053827
    2.O        -1.023159    0.345652    1.660184
    3.O         0.982089   -0.381373   -0.417167
    4.O        -2.705746    1.477571   -0.100961
    5.O        -1.024738    0.987863   -2.159648
    6.O        -1.566057   -1.232235   -0.499046
    7.O         0.214342    2.176708   -0.087103
    8.H         0.791824    2.535027   -0.793683
    9.H         0.427430    2.662930    0.738105
   10.H        -3.307319    1.405795   -0.875830
   11.H        -1.365920    0.392191   -2.861501
   12.H        -1.143510    1.904826   -2.487340
   13.H         1.128507   -1.354292   -0.403957
   14.H         1.737571    0.038126    0.052842
   15.H        -3.269716    1.478064    0.705504
 <Oct18-2020> <23:09:08>  >>>> CORORT
 <Oct18-2020> <23:09:08>  >>>> CLSMAT
 <Oct18-2020> <23:09:08>  >>>> ORTHON
 <Oct18-2020> <23:09:08>  >>>> GENPT
 <Oct18-2020> <23:09:09>  Block Length= 128
 <Oct18-2020> <23:09:09>  >>>> PTBAS
 <Oct18-2020> <23:09:09>  combining surface points...
 <Oct18-2020> <23:09:09>  combining surface points...
 <Oct18-2020> <23:09:09>  >>>> CYCLE
 <Oct18-2020> <23:09:10>              |Error|         MaxErr       Wt(A-DIIS)
 <Oct18-2020> <23:09:10>      1      0.12452104      0.02537345
 <Oct18-2020> <23:09:11>      2      0.56110203      0.15875087    100.0
 <Oct18-2020> <23:09:11>      3      0.13263943      0.02690710    100.0
 <Oct18-2020> <23:09:12>      4      0.05874690      0.00928023      8.4
 <Oct18-2020> <23:09:13>      5      0.07209315      0.01309940    100.0
 <Oct18-2020> <23:09:13>      6      0.28329880      0.06573691    100.0
 <Oct18-2020> <23:09:14>      7      0.10567681      0.02064511    100.0
 <Oct18-2020> <23:09:15>      8      0.01461468      0.00311692      2.1
 <Oct18-2020> <23:09:15>      9      0.00135219      0.00032454      0.0
 <Oct18-2020> <23:09:16>     10      0.00044924      0.00009346      0.0
 <Oct18-2020> <23:09:17>     11      0.00030794      0.00006476      0.0
 <Oct18-2020> <23:09:17>     12      0.00009060      0.00001484      0.0
 <Oct18-2020> <23:09:18>     13      0.00001324      0.00000243      0.0
 <Oct18-2020> <23:09:18>     14      0.00000327      0.00000057      0.0
 <Oct18-2020> <23:09:18>  SCF converged
 <Oct18-2020> <23:09:19>     15      0.00000056      0.00000010      0.0
 <Oct18-2020> <23:09:19>  >>>> TOTEN
 <Oct18-2020> <23:09:19>  >>>> POPAN
 <Oct18-2020> <23:09:19>  >>>> DEBYE
 <Oct18-2020> <23:09:19>  >>>> ENGRAD
 <Oct18-2020> <23:09:20>  Old frequency:     -9.98652, new:    293.86064
 <Oct18-2020> <23:09:20>  NOTE: Some frequencies have been re-calculated by numerical differentiation
 <Oct18-2020> <23:09:20>        Check the text output file for new values!
 <Oct18-2020> <23:09:20>  NORMAL TERMINATION
 <Oct18-2020> <23:09:20>  END
