
 *******************************************************************************
 *                                                                             *
 *  -------------------------------------                                      *
 *   Amsterdam Density Functional  (ADF)         2019                          *
 *  -------------------------------------                                      *
 *                                               r79301 2019-11-09             *
 *                                                                             *
 *                                                                             *
 *                            =====================                            *
 *                            |                   |                            *
 *                            |     D I R A C     |                            *
 *                            |                   |                            *
 *                            =====================                            *
 *                                                                             *
 *                                                                             *
 *   Online information and documentation:  https://www.scm.com/support/       *
 *   E-mail:  support@scm.com   info@scm.com                                   *
 *                                                                             *
 *   Scientific publications using ADF results must be properly referenced     *
 *   See the User Manuals (or the web site) for recommended citations          *
 *   The terms and conditions of the End User License Agreement apply to       *
 *   the use of ADF, https://www.scm.com/license-terms/                        *
 *                                                                             *
 **********************  x86_64_linux_intel / intelmpi  ************************
 
 
 
  
 DIRAC 2019  RunTime: Oct21-2020 11:13:24  Nodes: 1  Procs: 1

 Temporary files are created in /scratch/kid_0.1521815155 (0x58465342)

1
 HYDROGEN ATOM RELATIVISTIC, Point Nuc, A and c from libtc   
 N J RN H ZN XION ANUC CLIGHT
 5000    1100.00000000197.36710137  1.00000000  0.00000000    1.007825  0.1370360E+03
  PH   PHI     EPS        DEL        DELRVR
  0.30  0.30     2500.00  0.00001000  0.00001000
 IDIRC  NC1  NDEBU NPRIN  IPUN IRCOR IWCOR
   1   300     0     0     0     0     0
   XALPHA      XLATTER      RNUC
  0.70000000  0.00000000  0.00000000 Point Charge
   XN   XL   XJ      XE          XZ      XDELL
  1.0  0.0  0.5      -1.000       1.000     0.00000
 ICORP=  0  NPCL=  0  DEMP=0.00  PEPS=0.000000
 R(1)=  0.1000000E-08 D=  0.1005080E+01 RNUC=  0.0000000E+00
 converged at cycle   32  DENSITY AVERAGING    0.2400
  MAXIMUM ERROR IN R.V(R) IS   0.79874357E-05
 Q,EY,EV,EZ,ESUM,ETOT,RHO  0.100000E+01 -0.266614E+00 -0.619969E+00 -0.910779E+00 -0.203940E+00 -0.415998E+00  0.337036E-17


 DIRAC CALCULATION
1                    HYDROGEN ATOM RELATIVISTIC, Point Nuc, A and c from libtc


 EXCHANGE COEFFICIENT=  0.7000000           TAIL CORRECTION=  0.           NUCLEAR RADIUS=  0.000E+00
0                       ORBITAL    N    L    J     ELECTRONS     EIGENVALUE                DELTA OF EIGENV.

                          1S1/2  1.0  0.0  0.5     1.000       -0.2039397E+00                 0.2720093E-06


                                        NUCLEAR CHARGE=    1.000000
                            INTEGRAL OF CHARGE DENSITY=    1.000000
                           SUM OF THE ORBITAL ENERGIES=     -0.2039
                                          TOTAL ENERGY=     -0.4160
                                        KINETIC ENERGY=      0.4160
                             NUCLEAR ATTRACTION ENERGY=     -0.9108
                             ELECTRON REPULSION ENERGY=      0.2787
                                       EXCHANGE ENERGY=     -0.2000

 *******************************************************************************

                             D I R A C   E X I T
 NORMAL TERMINATION



 =================
 Timing Statistics
 =================
  
 Total Used :                     CPU=        0.06      System=        0.00     Elapsed=        0.07

 Calls  Section                     ( Mean, Percentage )
 ---------------------------------------------------------------------------------------------------
     2  ><      ................      0.00    0.00             0.00    0.00             0.00    0.01
     1  EXIT PROCEDURE .........      0.06  100.00             0.00  100.00             0.07   99.99


 Currently Open Files (EXIT00)
 ====================

 Unit    Access Format  Status   Type       Ident (file)
 -------------------------------------------------------
   3      SEQ    FORM   TRANSP  NORMAL      LOGFILE
                                          ( logfile )
 
Create H   file=TZP-H
XC
  GGA PBE
End
relativistic ZORA
Corepotentials t12.rel
End

 *******************************************************************************
 *                                                                             *
 *  -------------------------------------                                      *
 *   Amsterdam Density Functional  (ADF)         2019                          *
 *  -------------------------------------                                      *
 *                                               r79301 2019-11-09             *
 *                                                                             *
 *                                                                             *
 *                              =================                              *
 *                              |               |                              *
 *                              |     A D F     |                              *
 *                              |               |                              *
 *                              =================                              *
 *                                                                             *
 *                                                                             *
 *   Online information and documentation:  https://www.scm.com/support/       *
 *   E-mail:  support@scm.com   info@scm.com                                   *
 *                                                                             *
 *   Scientific publications using ADF results must be properly referenced     *
 *   See the User Manuals (or the web site) for recommended citations          *
 *   The terms and conditions of the End User License Agreement apply to       *
 *   the use of ADF, https://www.scm.com/license-terms/                        *
 *                                                                             *
 **********************  x86_64_linux_intel / intelmpi  ************************
 
 
 
  
 ADF 2019  RunTime: Oct21-2020 11:13:24  Nodes: 1  Procs: 1

 Temporary files are created in /scratch/kid_0.745381361 (0x58465342)

 Hydrogen (TZP)



 ===========================
 A T T A C H E D   F I L E S
 ===========================
  
 CREATE - Data File:    TZP-H
                        Hydrogen (TZP)
 Core Potentials:
         file : t12.rel



 ===============================
 M O D E L   P A R A M E T E R S
 ===============================
  
 DENSITY FUNCTIONAL POTENTIAL (scf)
    LDA:                               PW92                                    == Not Default ==
    Gradient Corrections:              PBEc PBEx                               == Not Default ==

 SPIN  (restricted / unrestr.)
    Molecule:                          Restricted                               

 OTHER ASPECTS
    Relativistic Corrections:          scalar (ZORA,MAPA)                      == Not Default ==

    Nuclear Charge Density Model:      Point Charge Nuclei                      
    Core Treatment:                    Frozen Orbital(s)                        

    Hyperfine or Zeeman Interaction:   ---                                      



 =====================================
 S Y M M E T R Y ,   E L E C T R O N S
 =====================================
  
 Symmetry: ATOM

 Irreducible Representations, including subspecies
 -------------------------------------------------
 S
 P:x  P:y  P:z
 D:z2  D:x2-y2  D:xy  D:xz  D:yz
 F:z3  F:z  F:xyz  F:z2x  F:z2y  F:x  F:y


 Configuration of Valence Electrons
 ==================================

          Occupation Numbers
          -------------------------------------------------
 S        1
 P        0
 D        0
 F        0
          -------------------------------------------------

 Total:   1

 Net Charge: 0 (Nuclei minus Electrons)

 Preset values for MO occupations will be applied through SCF cycle no. 1000000
 Thereafter, the program will assign electrons to MOs that are spatially
 similar to the occupied MOs in a "reference" cycle ("KeepOrbitals").
 The reference cycle is always the PREVIOUS cycle: it will evolve with
 the SCF procedure.



 ================================
 (Slater-type)  F U N C T I O N S  ***  (Basis and Fit)  ***
 ================================
  

 Atom Type    1  (H)
 ==============

 Valence Basis Sets:   4
 -----------------------
   1 S    0.690000
   1 S    0.920000
   1 S    1.580000
   2 P    1.250000


 BAS: List of all Elementary Cartesian Basis Functions
 =====================================================

 The numbering in the list below (to the right of the function characteristics) is referred
 to in print-outs of MO eigenvectors and Mulliken populations in the BAS representation
 (as contrasted to the SFO representation).

 Notes:
 1. The functions are characterized by a polynomial prefactor (powers of x,y,z and r) and
    an exponential decay factor alpha.
 2. Since the basis sets are specific for an atom TYPE, the individual functions occur on
    all atoms of that type.
 3. The word 'Core' in the left margin signals that it is a Core Function (CF) : not a
    degree of freedom in the valence set, but only used to ensure orthogonalization of
    the other valence basis functions on the frozen Core Orbitals.


 (power of) X  Y  Z  R     Alpha  on Atom
            ==========     =====     ==========

 H                                    1
                                  ---------------------------------------------------------------------------
            0  0  0  0     0.690      1
            0  0  0  0     0.920      2
            0  0  0  0     1.580      3
            1  0  0  0     1.250      4
            0  1  0  0     1.250      5
            0  0  1  0     1.250      6

 Total number of charge fitting functions (nprimf)        50
 Total number of Cartesian basis functions (naos)          6
 Total number of Cartesian core functions  (ncos)          0



 BAS: List of all Elementary Cartesian Basis Functions
 =====================================================

 The numbering in the list below (to the right of the function characteristics) is referred
 to in print-outs of MO eigenvectors and Mulliken populations in the BAS representation
 (as contrasted to the SFO representation).

 Notes:
 1. The functions are characterized by a polynomial prefactor (powers of x,y,z and r) and
    an exponential decay factor alpha.
 2. Since the basis sets are specific for an atom TYPE, the individual functions occur on
    all atoms of that type.
 3. The word 'Core' in the left margin signals that it is a Core Function (CF) : not a
    degree of freedom in the valence set, but only used to ensure orthogonalization of
    the other valence basis functions on the frozen Core Orbitals.


 (power of) X  Y  Z  R     Alpha  on Atom
            ==========     =====     ==========

 H                                    1
                                  ---------------------------------------------------------------------------
            0  0  0  0     0.690      1
            0  0  0  0     0.920      2
            0  0  0  0     1.580      3
            1  0  0  0     1.250      4
            0  1  0  0     1.250      5
            0  0  1  0     1.250      6
1
 ***************************************************************************************************



                                              ***********************
                                              *  T E C H N I C A L  *
                                              ***********************
  



 =============================================================
 P A R A L L E L I Z A T I O N  and  V E C T O R I Z A T I O N
 =============================================================
  
 Nr of parallel processes:                                1
 Maximum vector length in NumInt loops:                 128



 =====================
 S C F   U P D A T E S
 =====================
  
 Max. nr. of cycles:                               300
 Convergence criterion:                              0.0000000100
   secondary criterion:                              0.0000000100

 Mix parameter (when DIIS does not apply):           0.2000000000
 Special mix parameter for the first cycle:          1.0000000000
 Mixed ADIIS+SDIIS will be used                  
    Max number of expansion vectors:                10
    Pure ADIIS when Max([F,P]) is above              0.1000000000
    Pure SDIIS when Max([F,P]) is below              0.0010000000
 Automatic ElectronSmearing (in case of problematic SCF convergence) disabled



 =================
 P R E C I S I O N  ***  (General: NumInt, NeglectFunctionTails, ...)  ***
 =================
  

 NumInt:           Target precision:                12.0000000000
 -------           Initial precision:               10.0000000000
                   Min. precision (optimization):   10.0000000000

 Neglect Functions:          Basis functions:        0.1000000000E-13
 ------------------          Fit functions:          0.1000000000E-13



 ===========================
 L I N E A R   S C A L I N G
 ===========================
  

 Cut-off radii density fit:                        0.1000000000E-97
 Overlap cut-off criterion AO matrix elements:     0.1000000000E-97
 Cut-offs for Coulomb potential and fitted density:0.1000000000E-97
 Cut-off criterion for Coulomb multipole terms:    0.1000000000E-97
 Progressive Convergence parameter:                 0.000000000    
1
 ***************************************************************************************************



                                            ***************************
                                            *  C O M P U T A T I O N  *
                                            ***************************
  

 Number of elements of the density matrix on this node (used, total):        21        21



 ===========================================
 Numerical Integration : Fuzzy Cells (Becke)
 ===========================================
  
 Becke grid quality: VERYGOOD       
  
 Lebedev angular grid order:             min:  13 max:  41
 Nr. of radial points:                   min:  64 max:  64

 Total nr. of points:         64
 Nr. of blocks:                1
 Block length:                64
 Nr. of dummy points:          0


 Test of Precision of the Numerical Integration Grid
 ===================================================

 Integral of the Total Core Density:                   0.00000000000000



 ========================
 Density Fitting (zlmFit)
 ========================
  
 ZlmFit Fit Quality: VERYGOOD       
  
 Max L-expansion:                        min:   0 max:   0
 Nr. of radial interpolation points:     min: 120 max: 120



 =====
 S C F  ***  ScaSCF  ***
 =====
  

 CYCLE    1
 SCF Error: norm([F,P])=      0.000000000000, max([F,P])=      0.000000000000
 orbitals (Q,E):
 ---------------
 S :1...3            ( 1.00    -0.5000)  ( 0.00    -0.0900)  ( 0.00     1.2936)
 P :1...1            ( 0.00     0.1562)

 CYCLE    2
 SCF Error: norm([F,P])=      0.031537872292, max([F,P])=      0.030110494752
 orbitals (Q,E):
 ---------------
 S :1...2            ( 1.00    -0.2218)  ( 0.00     0.1019)
 P :1...1            ( 0.00     0.4189)

 CYCLE    3
  SDIIS (wt  0.000):  0.1996  0.8004
 A-DIIS (wt  1.000):  0.0000  1.0000
  DIIS coefficients:  0.0000  1.0000
 SCF Error: norm([F,P])=      0.008617989401, max([F,P])=      0.008343029399
 orbitals (Q,E):
 ---------------
 S :1...2            ( 1.00    -0.2422)  ( 0.00     0.0889)
 P :1...1            ( 0.00     0.4024)

 CYCLE    4
  SDIIS (wt  0.993):  0.1666  0.8334
 A-DIIS (wt  0.007):  0.0000  1.0000
  DIIS coefficients:  0.1654  0.8346
 SCF Error: norm([F,P])=      0.001732350026, max([F,P])=      0.001718616814
 orbitals (Q,E):
 ---------------
 S :1...2            ( 1.00    -0.2385)  ( 0.00     0.0908)
 P :1...1            ( 0.00     0.4054)

 CYCLE    5
  SDIIS (wt  1.000):  0.0236  0.9764
  DIIS coefficients:  0.0236  0.9764
 SCF Error: norm([F,P])=      0.000043673449, max([F,P])=      0.000039769875
 orbitals (Q,E):
 ---------------
 S :1...2            ( 1.00    -0.2386)  ( 0.00     0.0908)
 P :1...1            ( 0.00     0.4054)

 CYCLE    6
  SDIIS (wt  1.000): -0.0577  1.0577
  DIIS coefficients: -0.0577  1.0577
 SCF Error: norm([F,P])=      0.000002383805, max([F,P])=      0.000002158128
 orbitals (Q,E):
 ---------------
 S :1...2            ( 1.00    -0.2386)  ( 0.00     0.0908)
 P :1...1            ( 0.00     0.4054)

 CYCLE    7
  SDIIS (wt  1.000): -0.0032  1.0032
  DIIS coefficients: -0.0032  1.0032
 SCF Error: norm([F,P])=      0.000000007721, max([F,P])=      0.000000007228
 orbitals (Q,E):
 ---------------
 S :1...2            ( 1.00    -0.2386)  ( 0.00     0.0908)
 P :1...1            ( 0.00     0.4054)

 SCF CONVERGED

 CYCLE    8
1
 ***************************************************************************************************



                                                *******************
                                                *  R E S U L T S  *
                                                *******************
  
 *** Using FIT density in Focky
  SDIIS (wt  1.000):  0.0192  0.9808
  DIIS coefficients:  0.0192  0.9808
 SCF Error: norm([F,P])=      0.000000000151, max([F,P])=      0.000000000141

 Scaled ZORA Orbital Energies, per Irrep and Spin:
 =================================================
                        Occup              E (au)              E (eV)       Diff (eV) with prev. cycle
                        -----      --------------------        ------       --------------------------
 S
               1        1.000     -0.23861775226993E+00        -6.493               7.43E-09
               2        0.000      0.90791701709251E-01         2.471
               3        0.000      0.15217530108908E+01        41.409
 P
               1        0.000      0.40537978060393E+00        11.031


 Partially Occupied:
               1 S                -0.23861775226993E+00
  
 LUMO :        2 S                 0.90791701709251E-01
  


 Orbital Energies, all Irreps
 ========================================

 Irrep        no.  (spin)   Occup              E (au)                E (eV)
 ---------------------------------------------------------------------------
 S             1             1.00       -0.23861775226993E+00        -6.4931
 S             2             0.00        0.90791701709251E-01         2.4706
 P             1             0.00        0.40537978060393E+00        11.0309
 S             3             0.00        0.15217530108908E+01        41.4090


 All Electron Calculation, thus no Orbital Energies of the Core Orbitals are calculated



 =======================================
 M U L L I K E N   P O P U L A T I O N S
 =======================================
  
 The survey below gives for each atom:
 a) the total charge (Z minus electrons)
 b) the net spin polarization (nr of electrons spin-A minus spin-B)
 c) for each spin the atomic electron valence density (integrated) per L-value.

 Atom              Charge    Spin density          S         P         D         F
 ----              ------    ------------       ------    ------    ------    ------
 1 H              -0.0000                       1.0000    0.0000    0.0000    0.0000

 Populations of individual BAS functions
 ----------------------------------------
 1 H            0.2104  0.6788  0.1107  0.0000  0.0000  0.0000

 Gross Charges per Atom (Z minus electrons)
 ==========================================
            -0.0000
 Net Total: -0.00000000



 =======================================================================
 Electrostatic potential at the Nuclei due to electrons and other nuclei
 =======================================================================
  
         Atom                  Potential
         ----                  ---------
     1)   H                   0.94468022
 
 
 ========================
 No memory problems found
 ========================
 
 Maximum number of active allocate calls:         306
 
 *******************************************************************************

                             A D F   E X I T
 NORMAL TERMINATION



 =================
 Timing Statistics
 =================
  
 Total Used :                     CPU=        0.33      System=        0.02     Elapsed=        0.38

 Calls  Section                     ( Mean, Percentage )
 ---------------------------------------------------------------------------------------------------
     3  ><      ................      0.00    0.00             0.00   20.00             0.00    1.04
     1  INIT    ................      0.07   21.69             0.00    0.00             0.08   20.50
     1  GEOMET  ................      0.01    3.61             0.00   20.00             0.02    6.06
     1  INPUTA  ................      0.00    1.20             0.00    0.00             0.00    0.89
     1  MAINSY  ................      0.01    2.41             0.00    0.00             0.01    3.31
     1  SYMFIT  ................      0.00    1.20             0.00    0.00             0.00    0.42
     1  CORORT  ................      0.00    0.00             0.00    0.00             0.00    0.33
     1  SYMORB  ................      0.00    0.00             0.00    0.00             0.00    0.19
     1  CLSMAT  ................      0.00    1.20             0.00    0.00             0.01    1.37
     1  ORTHON  ................      0.00    1.21             0.00    0.00             0.00    1.24
     1  GENPT   ................      0.01    3.61             0.00    0.00             0.01    3.26
     1  PTBAS   ................      0.00    1.21             0.00    0.00             0.01    1.35
     8  FOCKY   ................      0.02   48.19             0.00   60.00             0.02   44.46
     8  FOCKTR  ................      0.00    2.41             0.00    0.00             0.00    1.24
     8  SDIIS   ................      0.00    2.41             0.00    0.00             0.00    5.64
     1  COREPS  ................      0.01    3.61             0.00    0.00             0.01    3.66
     1  POPAN   ................      0.00    1.21             0.00    0.00             0.00    1.22
     1  DEBYE   ................      0.00    1.20             0.00    0.00             0.00    0.49
     1  EXIT PROCEDURE .........      0.01    3.61             0.00    0.00             0.01    3.36


 Currently Open Files (EXIT00)
 ====================

 Unit    Access Format  Status   Type       Ident (file)
 -------------------------------------------------------
   3      SEQ    FORM   TRANSP  NORMAL      LOGFILE
                                          ( logfile )

 ***************************************************************************************************
 (LOGFILE)
 <Oct21-2020> <11:13:24>  DIRAC 2019  RunTime: Oct21-2020 11:13:24  Nodes: 1  Procs: 1
 <Oct21-2020> <11:13:24>  NORMAL TERMINATION
 <Oct21-2020> <11:13:24>  END
 <Oct21-2020> <11:13:24>  ADF 2019  RunTime: Oct21-2020 11:13:24  Nodes: 1  Procs: 1
 <Oct21-2020> <11:13:24>  Hydrogen (TZP)
 <Oct21-2020> <11:13:24>  RunType   : CREATE
 <Oct21-2020> <11:13:24>  Net Charge: 0 (Nuclei minus Electrons)
 <Oct21-2020> <11:13:24>  Symmetry  : ATOM
  Coordinates
    Atom         X           Y           Z   (Angstrom)
    1.H         0.000000    0.000000    0.000000
 <Oct21-2020> <11:13:24>  >>>> CORORT
 <Oct21-2020> <11:13:24>  >>>> CLSMAT
 <Oct21-2020> <11:13:24>  >>>> ORTHON
 <Oct21-2020> <11:13:24>  >>>> GENPT
 <Oct21-2020> <11:13:24>  Block Length=  64
 <Oct21-2020> <11:13:24>  >>>> PTBAS
 <Oct21-2020> <11:13:24>  >>>> CYCLE
 <Oct21-2020> <11:13:24>              |Error|         MaxErr       Wt(A-DIIS)
 <Oct21-2020> <11:13:24>      1      0.00000000      0.00000000
 <Oct21-2020> <11:13:24>      2      0.03153787      0.03011049
 <Oct21-2020> <11:13:24>      3      0.00861799      0.00834303    100.0
 <Oct21-2020> <11:13:24>      4      0.00173235      0.00171862      0.7
 <Oct21-2020> <11:13:24>      5      0.00004367      0.00003977      0.0
 <Oct21-2020> <11:13:24>      6      0.00000238      0.00000216      0.0
 <Oct21-2020> <11:13:24>      7      0.00000001      0.00000001      0.0
 <Oct21-2020> <11:13:24>  SCF converged
 <Oct21-2020> <11:13:25>      8      0.00000000      0.00000000      0.0
 <Oct21-2020> <11:13:25>  >>>> POPAN
 <Oct21-2020> <11:13:25>  >>>> DEBYE
 <Oct21-2020> <11:13:25>  NORMAL TERMINATION
 <Oct21-2020> <11:13:25>  END

 *******************************************************************************
 *                                                                             *
 *  -------------------------------------                                      *
 *   Amsterdam Density Functional  (ADF)         2019                          *
 *  -------------------------------------                                      *
 *                                               r79301 2019-11-09             *
 *                                                                             *
 *                                                                             *
 *                            =====================                            *
 *                            |                   |                            *
 *                            |     D I R A C     |                            *
 *                            |                   |                            *
 *                            =====================                            *
 *                                                                             *
 *                                                                             *
 *   Online information and documentation:  https://www.scm.com/support/       *
 *   E-mail:  support@scm.com   info@scm.com                                   *
 *                                                                             *
 *   Scientific publications using ADF results must be properly referenced     *
 *   See the User Manuals (or the web site) for recommended citations          *
 *   The terms and conditions of the End User License Agreement apply to       *
 *   the use of ADF, https://www.scm.com/license-terms/                        *
 *                                                                             *
 **********************  x86_64_linux_intel / intelmpi  ************************
 
 
 
  
 DIRAC 2019  RunTime: Oct21-2020 11:13:25  Nodes: 1  Procs: 1

 Temporary files are created in /scratch/kid_0.174805906 (0x58465342)

1
 OXYGEN ATOM 1s CORE RELATIVISTIC, Point Nuc, A and c from li
 N J RN H ZN XION ANUC CLIGHT
 5000    4100.00000000197.36710137  8.00000000  0.00000000   15.994914  0.1370360E+03
  PH   PHI     EPS        DEL        DELRVR
  0.30  0.30     2500.00  0.00001000  0.00001000
 IDIRC  NC1  NDEBU NPRIN  IPUN IRCOR IWCOR
   1   300     0     0     0     0     1
   XALPHA      XLATTER      RNUC
  0.70000000  0.00000000  0.00000000 Point Charge
   XN   XL   XJ      XE          XZ      XDELL
  1.0  0.0  0.5      -5.000       2.000     0.00000
  2.0  0.0  0.5      -1.000       2.000     0.00000
  2.0  1.0  0.5      -1.000       2.000     0.00000
  2.0  1.0  1.5      -1.000       2.000     0.00000
 ICORP=  0  NPCL=  0  DEMP=0.00  PEPS=0.000000
 R(1)=  0.1000000E-08 D=  0.1005080E+01 RNUC=  0.0000000E+00
 converged at cycle   28  DENSITY AVERAGING    0.2400
  MAXIMUM ERROR IN R.V(R) IS   0.81125670E-05
 Q,EY,EV,EZ,ESUM,ETOT,RHO  0.800000E+01 -0.101247E+02 -0.114961E+03 -0.177573E+03 -0.405053E+02 -0.743427E+02  0.414766E-14


 DIRAC CALCULATION
1                    OXYGEN ATOM 1s CORE RELATIVISTIC, Point Nuc, A and c from libtc


 EXCHANGE COEFFICIENT=  0.7000000           TAIL CORRECTION=  0.           NUCLEAR RADIUS=  0.000E+00
0                       ORBITAL    N    L    J     ELECTRONS     EIGENVALUE                DELTA OF EIGENV.

                          1S1/2  1.0  0.0  0.5     2.000       -0.1880014E+02                 0.7264358E-06
                          2S1/2  2.0  0.0  0.5     2.000       -0.8412236E+00                 0.5932752E-05
                          2P1/2  2.0  1.0  0.5     2.000       -0.3063203E+00                 0.5998471E-05
                          2P3/2  2.0  1.0  1.5     2.000       -0.3049609E+00                 0.5986971E-05


                                        NUCLEAR CHARGE=    8.000000
                            INTEGRAL OF CHARGE DENSITY=    8.000000
                           SUM OF THE ORBITAL ENERGIES=    -40.5053
                                          TOTAL ENERGY=    -74.3427
                                        KINETIC ENERGY=     74.4552
                             NUCLEAR ATTRACTION ENERGY=   -177.5730
                             ELECTRON REPULSION ENERGY=     36.3686
                                       EXCHANGE ENERGY=     -7.5935

 *******************************************************************************

                             D I R A C   E X I T
 NORMAL TERMINATION



 =================
 Timing Statistics
 =================
  
 Total Used :                     CPU=        0.10      System=        0.00     Elapsed=        0.11

 Calls  Section                     ( Mean, Percentage )
 ---------------------------------------------------------------------------------------------------
     2  ><      ................      0.00    0.00             0.00    0.00             0.00    0.00
     1  EXIT PROCEDURE .........      0.10  100.00             0.00    0.00             0.11  100.00


 Currently Open Files (EXIT00)
 ====================

 Unit    Access Format  Status   Type       Ident (file)
 -------------------------------------------------------
   3      SEQ    FORM   TRANSP  NORMAL      LOGFILE
                                          ( logfile )
 
Create O   file=TZP-O.1s
XC
  GGA PBE
End
relativistic ZORA
Corepotentials t12.rel
End

 *******************************************************************************
 *                                                                             *
 *  -------------------------------------                                      *
 *   Amsterdam Density Functional  (ADF)         2019                          *
 *  -------------------------------------                                      *
 *                                               r79301 2019-11-09             *
 *                                                                             *
 *                                                                             *
 *                              =================                              *
 *                              |               |                              *
 *                              |     A D F     |                              *
 *                              |               |                              *
 *                              =================                              *
 *                                                                             *
 *                                                                             *
 *   Online information and documentation:  https://www.scm.com/support/       *
 *   E-mail:  support@scm.com   info@scm.com                                   *
 *                                                                             *
 *   Scientific publications using ADF results must be properly referenced     *
 *   See the User Manuals (or the web site) for recommended citations          *
 *   The terms and conditions of the End User License Agreement apply to       *
 *   the use of ADF, https://www.scm.com/license-terms/                        *
 *                                                                             *
 **********************  x86_64_linux_intel / intelmpi  ************************
 
 
 
  
 ADF 2019  RunTime: Oct21-2020 11:13:25  Nodes: 1  Procs: 1

 Temporary files are created in /scratch/kid_0.621709028 (0x58465342)

 Oxygen (TZP, 1s frozen)



 ===========================
 A T T A C H E D   F I L E S
 ===========================
  
 CREATE - Data File:    TZP-O.1s
                        Oxygen (TZP, 1s frozen)
 Core Potentials:
         file : t12.rel



 ===============================
 M O D E L   P A R A M E T E R S
 ===============================
  
 DENSITY FUNCTIONAL POTENTIAL (scf)
    LDA:                               PW92                                    == Not Default ==
    Gradient Corrections:              PBEc PBEx                               == Not Default ==

 SPIN  (restricted / unrestr.)
    Molecule:                          Restricted                               

 OTHER ASPECTS
    Relativistic Corrections:          scalar (ZORA,MAPA)                      == Not Default ==

    Nuclear Charge Density Model:      Point Charge Nuclei                      
    Core Treatment:                    Frozen Orbital(s)                        

    Hyperfine or Zeeman Interaction:   ---                                      



 =====================================
 S Y M M E T R Y ,   E L E C T R O N S
 =====================================
  
 Symmetry: ATOM

 Irreducible Representations, including subspecies
 -------------------------------------------------
 S
 P:x  P:y  P:z
 D:z2  D:x2-y2  D:xy  D:xz  D:yz
 F:z3  F:z  F:xyz  F:z2x  F:z2y  F:x  F:y


 Configuration of Valence Electrons
 ==================================

          Occupation Numbers
          -------------------------------------------------
 S        2
 P        4
 D        0
 F        0
          -------------------------------------------------

 Total:   6

 Net Charge: 0 (Nuclei minus Electrons)

 Preset values for MO occupations will be applied through SCF cycle no. 1000000
 Thereafter, the program will assign electrons to MOs that are spatially
 similar to the occupied MOs in a "reference" cycle ("KeepOrbitals").
 The reference cycle is always the PREVIOUS cycle: it will evolve with
 the SCF procedure.



 ================================
 (Slater-type)  F U N C T I O N S  ***  (Basis and Fit)  ***
 ================================
  

 Atom Type    1  (O)
 ==============

 Valence Basis Sets:   8
 -----------------------
   1 S    7.360000
   2 S    1.720000
   2 S    2.880000
   2 S    7.580000
   2 P    1.120000
   2 P    2.080000
   2 P    4.080000
   3 D    2.000000

 Frozen Core Shells
 ------------------
    S:  1


 BAS: List of all Elementary Cartesian Basis Functions
 =====================================================

 The numbering in the list below (to the right of the function characteristics) is referred
 to in print-outs of MO eigenvectors and Mulliken populations in the BAS representation
 (as contrasted to the SFO representation).

 Notes:
 1. The functions are characterized by a polynomial prefactor (powers of x,y,z and r) and
    an exponential decay factor alpha.
 2. Since the basis sets are specific for an atom TYPE, the individual functions occur on
    all atoms of that type.
 3. The word 'Core' in the left margin signals that it is a Core Function (CF) : not a
    degree of freedom in the valence set, but only used to ensure orthogonalization of
    the other valence basis functions on the frozen Core Orbitals.


 (power of) X  Y  Z  R     Alpha  on Atom
            ==========     =====     ==========

 O                                    1
                                  ---------------------------------------------------------------------------
    Core    0  0  0  0     7.360      1
            0  0  0  1     1.720      2
            0  0  0  1     2.880      3
            0  0  0  1     7.580      4
            1  0  0  0     1.120      5
            0  1  0  0     1.120      6
            0  0  1  0     1.120      7
            1  0  0  0     2.080      8
            0  1  0  0     2.080      9
            0  0  1  0     2.080     10
            1  0  0  0     4.080     11
            0  1  0  0     4.080     12
            0  0  1  0     4.080     13
            2  0  0  0     2.000     14
            1  1  0  0     2.000     15
            1  0  1  0     2.000     16
            0  2  0  0     2.000     17
            0  1  1  0     2.000     18
            0  0  2  0     2.000     19

 Total number of charge fitting functions (nprimf)        82
 Total number of Cartesian basis functions (naos)         19
 Total number of Cartesian core functions  (ncos)          1



 BAS: List of all Elementary Cartesian Basis Functions
 =====================================================

 The numbering in the list below (to the right of the function characteristics) is referred
 to in print-outs of MO eigenvectors and Mulliken populations in the BAS representation
 (as contrasted to the SFO representation).

 Notes:
 1. The functions are characterized by a polynomial prefactor (powers of x,y,z and r) and
    an exponential decay factor alpha.
 2. Since the basis sets are specific for an atom TYPE, the individual functions occur on
    all atoms of that type.
 3. The word 'Core' in the left margin signals that it is a Core Function (CF) : not a
    degree of freedom in the valence set, but only used to ensure orthogonalization of
    the other valence basis functions on the frozen Core Orbitals.


 (power of) X  Y  Z  R     Alpha  on Atom
            ==========     =====     ==========

 O                                    1
                                  ---------------------------------------------------------------------------
    Core    0  0  0  0     7.360      1
            0  0  0  1     1.720      2
            0  0  0  1     2.880      3
            0  0  0  1     7.580      4
            1  0  0  0     1.120      5
            0  1  0  0     1.120      6
            0  0  1  0     1.120      7
            1  0  0  0     2.080      8
            0  1  0  0     2.080      9
            0  0  1  0     2.080     10
            1  0  0  0     4.080     11
            0  1  0  0     4.080     12
            0  0  1  0     4.080     13
            2  0  0  0     2.000     14
            1  1  0  0     2.000     15
            1  0  1  0     2.000     16
            0  2  0  0     2.000     17
            0  1  1  0     2.000     18
            0  0  2  0     2.000     19
1
 ***************************************************************************************************



                                              ***********************
                                              *  T E C H N I C A L  *
                                              ***********************
  



 =============================================================
 P A R A L L E L I Z A T I O N  and  V E C T O R I Z A T I O N
 =============================================================
  
 Nr of parallel processes:                                1
 Maximum vector length in NumInt loops:                 128



 =====================
 S C F   U P D A T E S
 =====================
  
 Max. nr. of cycles:                               300
 Convergence criterion:                              0.0000000100
   secondary criterion:                              0.0000000100

 Mix parameter (when DIIS does not apply):           0.2000000000
 Special mix parameter for the first cycle:          1.0000000000
 Mixed ADIIS+SDIIS will be used                  
    Max number of expansion vectors:                10
    Pure ADIIS when Max([F,P]) is above              0.1000000000
    Pure SDIIS when Max([F,P]) is below              0.0010000000
 Automatic ElectronSmearing (in case of problematic SCF convergence) disabled



 =================
 P R E C I S I O N  ***  (General: NumInt, NeglectFunctionTails, ...)  ***
 =================
  

 NumInt:           Target precision:                12.0000000000
 -------           Initial precision:               10.0000000000
                   Min. precision (optimization):   10.0000000000

 Neglect Functions:          Basis functions:        0.1000000000E-13
 ------------------          Fit functions:          0.1000000000E-13



 ===========================
 L I N E A R   S C A L I N G
 ===========================
  

 Cut-off radii density fit:                        0.1000000000E-97
 Overlap cut-off criterion AO matrix elements:     0.1000000000E-97
 Cut-offs for Coulomb potential and fitted density:0.1000000000E-97
 Cut-off criterion for Coulomb multipole terms:    0.1000000000E-97
 Progressive Convergence parameter:                 0.000000000    
1
 ***************************************************************************************************



                                            ***************************
                                            *  C O M P U T A T I O N  *
                                            ***************************
  

 Number of elements of the density matrix on this node (used, total):       190       190



 ===========================================
 Numerical Integration : Fuzzy Cells (Becke)
 ===========================================
  
 Becke grid quality: VERYGOOD       
  
 Lebedev angular grid order:             min:  13 max:  41
 Nr. of radial points:                   min:  68 max:  68

 Total nr. of points:         68
 Nr. of blocks:                1
 Block length:                68
 Nr. of dummy points:          0


 Test of Precision of the Numerical Integration Grid
 ===================================================

 Integral of the Total Core Density:                   1.99999999865610
 Relative Error:                                      -6.720E-10



 ========================
 Density Fitting (zlmFit)
 ========================
  
 ZlmFit Fit Quality: VERYGOOD       
  
 Max L-expansion:                        min:   0 max:   0
 Nr. of radial interpolation points:     min: 140 max: 140



 =====
 S C F  ***  ScaSCF  ***
 =====
  

 CYCLE    1
 SCF Error: norm([F,P])=      0.000000000000, max([F,P])=      0.000000000000
 orbitals (Q,E):
 ---------------
 S :1...3            ( 2.00    -5.3654)  ( 0.00    -2.2073)  ( 0.00    23.6692)
 P :1...3            ( 4.00    -5.0045)  ( 0.00    -2.0150)  ( 0.00    -0.3846)
 D :1...1            ( 0.00    -2.0410)

 CYCLE    2
 SCF Error: norm([F,P])=      4.562993374873, max([F,P])=      2.528971113813
 orbitals (Q,E):
 ---------------
 S :1...2            ( 2.00    -0.1548)  ( 0.00     1.6948)
 P :1...2            ( 4.00     0.1773)  ( 0.00     0.9552)
 D :1...1            ( 0.00     1.4649)

 CYCLE    3
  SDIIS (wt  0.000):  0.3378  0.6622
 A-DIIS (wt  1.000):  0.4814  0.5186
  DIIS coefficients:  0.4814  0.5186
 SCF Error: norm([F,P])=      2.723155250500, max([F,P])=      1.798667049295
 orbitals (Q,E):
 ---------------
 S :1...2            ( 2.00    -1.1093)  ( 0.00     0.7549)
 P :1...2            ( 4.00    -0.5518)  ( 0.00     0.2590)
 D :1...1            ( 0.00     0.8910)

 CYCLE    4
  SDIIS (wt  0.000):  0.0919  0.9081
 A-DIIS (wt  1.000):  0.0000  1.0000
  DIIS coefficients:  0.0000  1.0000
 SCF Error: norm([F,P])=      0.289027138405, max([F,P])=      0.130648623511
 orbitals (Q,E):
 ---------------
 S :1...2            ( 2.00    -0.7707)  ( 0.00     0.9912)
 P :1...2            ( 4.00    -0.2284)  ( 0.00     0.4046)
 D :1...1            ( 0.00     1.1288)

 CYCLE    5
  SDIIS (wt  0.000):  0.0260  0.6740  0.3001
 A-DIIS (wt  1.000):  0.0000  0.5764  0.4236
  DIIS coefficients:  0.0000  0.5764  0.4236
 SCF Error: norm([F,P])=      0.416615089426, max([F,P])=      0.232643669786
 orbitals (Q,E):
 ---------------
 S :1...2            ( 2.00    -0.8764)  ( 0.00     0.9107)
 P :1...2            ( 4.00    -0.3280)  ( 0.00     0.3557)
 D :1...1            ( 0.00     1.0703)

 CYCLE    6
  SDIIS (wt  0.942):  0.0005  0.0237 -0.0203  0.9960
 A-DIIS (wt  0.058):  0.0000  0.0000  0.0000  1.0000
  DIIS coefficients:  0.0005  0.0224 -0.0191  0.9962
 SCF Error: norm([F,P])=      0.013723272809, max([F,P])=      0.006719036732
 orbitals (Q,E):
 ---------------
 S :1...2            ( 2.00    -0.8830)  ( 0.00     0.9058)
 P :1...2            ( 4.00    -0.3343)  ( 0.00     0.3521)
 D :1...1            ( 0.00     1.0657)

 CYCLE    7
  SDIIS (wt  1.000): -0.0000  0.0016  0.0023  0.0424  0.9537
  DIIS coefficients: -0.0000  0.0016  0.0023  0.0424  0.9537
 SCF Error: norm([F,P])=      0.001103645928, max([F,P])=      0.000634039171
 orbitals (Q,E):
 ---------------
 S :1...2            ( 2.00    -0.8827)  ( 0.00     0.9060)
 P :1...2            ( 4.00    -0.3340)  ( 0.00     0.3523)
 D :1...1            ( 0.00     1.0659)

 CYCLE    8
  SDIIS (wt  1.000): -0.0000 -0.0001  0.0000 -0.0032  0.0268  0.9765
  DIIS coefficients: -0.0000 -0.0001  0.0000 -0.0032  0.0268  0.9765
 SCF Error: norm([F,P])=      0.000035919805, max([F,P])=      0.000020263970
 orbitals (Q,E):
 ---------------
 S :1...2            ( 2.00    -0.8827)  ( 0.00     0.9060)
 P :1...2            ( 4.00    -0.3340)  ( 0.00     0.3522)
 D :1...1            ( 0.00     1.0659)

 CYCLE    9
  SDIIS (wt  1.000): -0.0000  0.0008  0.0188  0.9804
  DIIS coefficients: -0.0000  0.0008  0.0188  0.9804
 SCF Error: norm([F,P])=      0.000000326384, max([F,P])=      0.000000183924
 orbitals (Q,E):
 ---------------
 S :1...2            ( 2.00    -0.8827)  ( 0.00     0.9060)
 P :1...2            ( 4.00    -0.3340)  ( 0.00     0.3522)
 D :1...1            ( 0.00     1.0659)

 CYCLE   10
  SDIIS (wt  1.000):  0.0000  0.0003  0.9996
  DIIS coefficients:  0.0000  0.0003  0.9996
 SCF Error: norm([F,P])=      0.000000000559, max([F,P])=      0.000000000306
 orbitals (Q,E):
 ---------------
 S :1...2            ( 2.00    -0.8827)  ( 0.00     0.9060)
 P :1...2            ( 4.00    -0.3340)  ( 0.00     0.3522)
 D :1...1            ( 0.00     1.0659)

 SCF CONVERGED

 CYCLE   11
1
 ***************************************************************************************************



                                                *******************
                                                *  R E S U L T S  *
                                                *******************
  
 *** Using FIT density in Focky
  SDIIS (wt  1.000): -0.0000  0.0143  0.9857
  DIIS coefficients: -0.0000  0.0143  0.9857
 SCF Error: norm([F,P])=      0.000000000010, max([F,P])=      0.000000000006

 Scaled ZORA Orbital Energies, per Irrep and Spin:
 =================================================
                        Occup              E (au)              E (eV)       Diff (eV) with prev. cycle
                        -----      --------------------        ------       --------------------------
 S
               1        2.000     -0.88272313143209E+00       -24.020              -9.28E-11
               2        0.000      0.90601345014671E+00        24.654
               3        0.000      0.29578810816937E+02       804.880
 P
               1        4.000     -0.33400585272070E+00        -9.089              -8.94E-11
               2        0.000      0.35224911365993E+00         9.585
               3        0.000      0.38342927625315E+01       104.336
 D
               1        0.000      0.10658965783141E+01        29.005


 Partially Occupied:
               1 P                -0.33400585272070E+00
  
 HOMO :        1 S                -0.88272313143209E+00
 LUMO :        2 P                 0.35224911365993E+00
  


 Orbital Energies, all Irreps
 ========================================

 Irrep        no.  (spin)   Occup              E (au)                E (eV)
 ---------------------------------------------------------------------------
 S             1             2.00       -0.88272313143209E+00       -24.0201
 P             1             4.00       -0.33400585272070E+00        -9.0888
 P             2             0.00        0.35224911365993E+00         9.5852
 S             2             0.00        0.90601345014671E+00        24.6539
 D             1             0.00        0.10658965783141E+01        29.0045
 P             3             0.00        0.38342927625315E+01       104.3364
 S             3             0.00        0.29578810816937E+02       804.8804


 Scaled ZORA Orbital Energies of the Core Orbitals:
 ==================================================

 (Note that the atoms are grouped by atomtype, see the labels, and may hence NOT be in input order)

 AtomType  Orbital  Atom                   E (au)                        E (eV)
 --------  -------  ----           --------------------        ----------------
 O           1S        1          -0.18925919758629E+02                -515.000



 =======================================
 M U L L I K E N   P O P U L A T I O N S
 =======================================
  
 The survey below gives for each atom:
 a) the total charge (Z minus electrons)
 b) the net spin polarization (nr of electrons spin-A minus spin-B)
 c) for each spin the atomic electron valence density (integrated) per L-value.

 Atom              Charge    Spin density          S         P         D         F
 ----              ------    ------------       ------    ------    ------    ------
 1 O              -0.0000                       2.0000    4.0000    0.0000    0.0000

 Populations of individual BAS functions
 ----------------------------------------
 1 O            0.0005  0.9226  1.0966 -0.0196  0.3346  0.3346  0.3346  0.7512  0.7512  0.7512
                0.2476  0.2476  0.2476  0.0000  0.0000  0.0000  0.0000  0.0000  0.0000

 Gross Charges per Atom (Z minus electrons)
 ==========================================
            -0.0000
 Net Total: -0.00000000



 =======================================================================
 Electrostatic potential at the Nuclei due to electrons and other nuclei
 =======================================================================
  
         Atom                  Potential
         ----                  ---------
     1)   O                  22.20265662
 
 
 ========================
 No memory problems found
 ========================
 
 Maximum number of active allocate calls:         389
 
 *******************************************************************************

                             A D F   E X I T
 NORMAL TERMINATION



 =================
 Timing Statistics
 =================
  
 Total Used :                     CPU=        0.44      System=        0.01     Elapsed=        0.48

 Calls  Section                     ( Mean, Percentage )
 ---------------------------------------------------------------------------------------------------
     3  ><      ................      0.00    0.92             0.00    0.00             0.00    0.84
     1  INIT    ................      0.07   16.51             0.00    0.00             0.08   16.06
     1  GEOMET  ................      0.01    2.75             0.00   33.33             0.02    4.85
     1  INPUTA  ................      0.00    0.92             0.00    0.00             0.00    0.71
     1  MAINSY  ................      0.01    1.83             0.00   33.33             0.01    2.85
     1  SYMFIT  ................      0.00    0.00             0.00    0.00             0.00    0.34
     1  CORORT  ................      0.00    0.00             0.00    0.00             0.00    0.32
     1  SYMORB  ................      0.00    0.00             0.00    0.00             0.00    0.18
     1  CLSMAT  ................      0.01    1.83             0.00    0.00             0.01    1.21
     1  ORTHON  ................      0.00    0.92             0.00    0.00             0.01    1.08
     1  GENPT   ................      0.01    2.75             0.00    0.00             0.02    3.10
     1  PTBAS   ................      0.01    1.83             0.00    0.00             0.01    1.15
    11  FOCKY   ................      0.02   54.13             0.00   33.33             0.02   51.50
    11  FOCKTR  ................      0.00    1.83             0.00    0.00             0.00    1.55
    11  SDIIS   ................      0.00    5.50             0.00    0.00             0.00    6.34
     1  COREPS  ................      0.02    3.67             0.00    0.00             0.02    3.64
     1  POPAN   ................      0.01    1.83             0.00    0.00             0.01    1.12
     1  DEBYE   ................      0.00    0.00             0.00    0.00             0.00    0.39
     1  EXIT PROCEDURE .........      0.01    2.75             0.00    0.00             0.01    2.74


 Currently Open Files (EXIT00)
 ====================

 Unit    Access Format  Status   Type       Ident (file)
 -------------------------------------------------------
   3      SEQ    FORM   TRANSP  NORMAL      LOGFILE
                                          ( logfile )

 ***************************************************************************************************
 (LOGFILE)
 <Oct21-2020> <11:13:24>  DIRAC 2019  RunTime: Oct21-2020 11:13:24  Nodes: 1  Procs: 1
 <Oct21-2020> <11:13:24>  NORMAL TERMINATION
 <Oct21-2020> <11:13:24>  END
 <Oct21-2020> <11:13:24>  ADF 2019  RunTime: Oct21-2020 11:13:24  Nodes: 1  Procs: 1
 <Oct21-2020> <11:13:24>  Hydrogen (TZP)
 <Oct21-2020> <11:13:24>  RunType   : CREATE
 <Oct21-2020> <11:13:24>  Net Charge: 0 (Nuclei minus Electrons)
 <Oct21-2020> <11:13:24>  Symmetry  : ATOM
  Coordinates
    Atom         X           Y           Z   (Angstrom)
    1.H         0.000000    0.000000    0.000000
 <Oct21-2020> <11:13:24>  >>>> CORORT
 <Oct21-2020> <11:13:24>  >>>> CLSMAT
 <Oct21-2020> <11:13:24>  >>>> ORTHON
 <Oct21-2020> <11:13:24>  >>>> GENPT
 <Oct21-2020> <11:13:24>  Block Length=  64
 <Oct21-2020> <11:13:24>  >>>> PTBAS
 <Oct21-2020> <11:13:24>  >>>> CYCLE
 <Oct21-2020> <11:13:24>              |Error|         MaxErr       Wt(A-DIIS)
 <Oct21-2020> <11:13:24>      1      0.00000000      0.00000000
 <Oct21-2020> <11:13:24>      2      0.03153787      0.03011049
 <Oct21-2020> <11:13:24>      3      0.00861799      0.00834303    100.0
 <Oct21-2020> <11:13:24>      4      0.00173235      0.00171862      0.7
 <Oct21-2020> <11:13:24>      5      0.00004367      0.00003977      0.0
 <Oct21-2020> <11:13:24>      6      0.00000238      0.00000216      0.0
 <Oct21-2020> <11:13:24>      7      0.00000001      0.00000001      0.0
 <Oct21-2020> <11:13:24>  SCF converged
 <Oct21-2020> <11:13:25>      8      0.00000000      0.00000000      0.0
 <Oct21-2020> <11:13:25>  >>>> POPAN
 <Oct21-2020> <11:13:25>  >>>> DEBYE
 <Oct21-2020> <11:13:25>  NORMAL TERMINATION
 <Oct21-2020> <11:13:25>  END
 <Oct21-2020> <11:13:25>  DIRAC 2019  RunTime: Oct21-2020 11:13:25  Nodes: 1  Procs: 1
 <Oct21-2020> <11:13:25>  NORMAL TERMINATION
 <Oct21-2020> <11:13:25>  END
 <Oct21-2020> <11:13:25>  ADF 2019  RunTime: Oct21-2020 11:13:25  Nodes: 1  Procs: 1
 <Oct21-2020> <11:13:25>  Oxygen (TZP, 1s frozen)
 <Oct21-2020> <11:13:25>  RunType   : CREATE
 <Oct21-2020> <11:13:25>  Net Charge: 0 (Nuclei minus Electrons)
 <Oct21-2020> <11:13:25>  Symmetry  : ATOM
  Coordinates
    Atom         X           Y           Z   (Angstrom)
    1.O         0.000000    0.000000    0.000000
 <Oct21-2020> <11:13:25>  >>>> CORORT
 <Oct21-2020> <11:13:25>  >>>> CLSMAT
 <Oct21-2020> <11:13:25>  >>>> ORTHON
 <Oct21-2020> <11:13:25>  >>>> GENPT
 <Oct21-2020> <11:13:25>  Block Length=  68
 <Oct21-2020> <11:13:25>  >>>> PTBAS
 <Oct21-2020> <11:13:25>  >>>> CYCLE
 <Oct21-2020> <11:13:25>              |Error|         MaxErr       Wt(A-DIIS)
 <Oct21-2020> <11:13:25>      1      0.00000000      0.00000000
 <Oct21-2020> <11:13:25>      2      4.56299337      2.52897111
 <Oct21-2020> <11:13:25>      3      2.72315525      1.79866705    100.0
 <Oct21-2020> <11:13:25>      4      0.28902714      0.13064862    100.0
 <Oct21-2020> <11:13:25>      5      0.41661509      0.23264367    100.0
 <Oct21-2020> <11:13:25>      6      0.01372327      0.00671904      5.8
 <Oct21-2020> <11:13:25>      7      0.00110365      0.00063404      0.0
 <Oct21-2020> <11:13:25>      8      0.00003592      0.00002026      0.0
 <Oct21-2020> <11:13:25>      9      0.00000033      0.00000018      0.0
 <Oct21-2020> <11:13:25>     10      0.00000000      0.00000000      0.0
 <Oct21-2020> <11:13:25>  SCF converged
 <Oct21-2020> <11:13:25>     11      0.00000000      0.00000000      0.0
 <Oct21-2020> <11:13:25>  >>>> POPAN
 <Oct21-2020> <11:13:25>  >>>> DEBYE
 <Oct21-2020> <11:13:25>  NORMAL TERMINATION
 <Oct21-2020> <11:13:25>  END

 *******************************************************************************
 *                                                                             *
 *  -------------------------------------                                      *
 *   Amsterdam Density Functional  (ADF)         2019                          *
 *  -------------------------------------                                      *
 *                                               r79301 2019-11-09             *
 *                                                                             *
 *                                                                             *
 *                            =====================                            *
 *                            |                   |                            *
 *                            |     D I R A C     |                            *
 *                            |                   |                            *
 *                            =====================                            *
 *                                                                             *
 *                                                                             *
 *   Online information and documentation:  https://www.scm.com/support/       *
 *   E-mail:  support@scm.com   info@scm.com                                   *
 *                                                                             *
 *   Scientific publications using ADF results must be properly referenced     *
 *   See the User Manuals (or the web site) for recommended citations          *
 *   The terms and conditions of the End User License Agreement apply to       *
 *   the use of ADF, https://www.scm.com/license-terms/                        *
 *                                                                             *
 **********************  x86_64_linux_intel / intelmpi  ************************
 
 
 
  
 DIRAC 2019  RunTime: Oct21-2020 11:13:25  Nodes: 1  Procs: 1

 Temporary files are created in /scratch/kid_0.1286048335 (0x58465342)

1
 TUNGSTEN ATOM 4d CORE RELATIVISTIC, Point Nuc, A and c from 
 N J RN H ZN XION ANUC CLIGHT
 5000   22100.00000000197.36710137 74.00000000  0.00000000  183.950932  0.1370360E+03
  PH   PHI     EPS        DEL        DELRVR
  0.30  0.30     2500.00  0.00001000  0.00001000
 IDIRC  NC1  NDEBU NPRIN  IPUN IRCOR IWCOR
   1   300     0     0     0     0    14
   XALPHA      XLATTER      RNUC
  0.70000000  0.00000000  0.00000000 Point Charge
   XN   XL   XJ      XE          XZ      XDELL
  1.0  0.0  0.5   -2600.000       2.000     0.00000
  2.0  0.0  0.5    -425.000       2.000     0.00000
  2.0  1.0  0.5    -425.000       2.000     0.00000
  2.0  1.0  1.5    -425.000       4.000     0.00000
  3.0  0.0  0.5    -100.000       2.000     0.00000
  3.0  1.0  0.5    -100.000       2.000     0.00000
  3.0  1.0  1.5    -100.000       4.000     0.00000
  3.0  2.0  1.5     -80.000       4.000     0.00000
  3.0  2.0  2.5     -80.000       6.000     0.00000
  4.0  0.0  0.5     -22.000       2.000     0.00000
  4.0  1.0  0.5     -20.000       2.000     0.00000
  4.0  1.0  1.5     -20.000       4.000     0.00000
  4.0  2.0  1.5     -11.000       4.000     0.00000
  4.0  2.0  2.5     -11.000       6.000     0.00000
  4.0  3.0  2.5      -1.000       6.000     0.00000
  4.0  3.0  3.5      -1.000       8.000     0.00000
  5.0  0.0  0.5      -3.000       2.000     0.00000
  5.0  1.0  0.5      -2.200       2.000     0.00000
  5.0  1.0  1.5      -2.200       4.000     0.00000
  5.0  2.0  1.5      -0.500       4.000     0.00000
  5.0  2.0  2.5      -0.500       0.000     0.00000
  6.0  0.0  0.5      -0.200       2.000     0.00000
 ICORP=  0  NPCL=  0  DEMP=0.00  PEPS=0.000000
 R(1)=  0.1000000E-08 D=  0.1005080E+01 RNUC=  0.0000000E+00
 converged at cycle   63  DENSITY AVERAGING    0.1536
  MAXIMUM ERROR IN R.V(R) IS   0.78838062E-05
 Q,EY,EV,EZ,ESUM,ETOT,RHO  0.740000E+02 -0.431420E+03 -0.281568E+05 -0.403919E+05 -0.993885E+04 -0.161643E+05  0.726391E-09


 DIRAC CALCULATION
1                    TUNGSTEN ATOM 4d CORE RELATIVISTIC, Point Nuc, A and c from libtc


 EXCHANGE COEFFICIENT=  0.7000000           TAIL CORRECTION=  0.           NUCLEAR RADIUS=  0.000E+00
0                       ORBITAL    N    L    J     ELECTRONS     EIGENVALUE                DELTA OF EIGENV.

                          1S1/2  1.0  0.0  0.5     2.000       -0.2549514E+04                 0.5980248E-04
                          2S1/2  2.0  0.0  0.5     2.000       -0.4399118E+03                 0.5052420E-04
                          2P1/2  2.0  1.0  0.5     2.000       -0.4208427E+03                 0.5265062E-04
                          2P3/2  2.0  1.0  1.5     4.000       -0.3711192E+03                 0.5139441E-04
                          3S1/2  3.0  0.0  0.5     2.000       -0.1012881E+03                 0.3437035E-04
                          3P1/2  3.0  1.0  0.5     2.000       -0.9277148E+02                 0.3553128E-04
                          3P3/2  3.0  1.0  1.5     4.000       -0.8201733E+02                 0.3404634E-04
                          3D3/2  3.0  2.0  1.5     4.000       -0.6762803E+02                 0.3680712E-04
                          3D5/2  3.0  2.0  2.5     6.000       -0.6528623E+02                 0.3629511E-04
                          4S1/2  4.0  0.0  0.5     2.000       -0.2084139E+02                 0.1939427E-04
                          4P1/2  4.0  1.0  0.5     2.000       -0.1730737E+02                 0.1933978E-04
                          4P3/2  4.0  1.0  1.5     4.000       -0.1480597E+02                 0.1810922E-04
                          4D3/2  4.0  2.0  1.5     4.000       -0.8989319E+01                 0.1779394E-04
                          4D5/2  4.0  2.0  2.5     6.000       -0.8528007E+01                 0.1741170E-04
                          4F5/2  4.0  3.0  2.5     6.000       -0.1237480E+01                 0.1544089E-04
                          4F7/2  4.0  3.0  3.5     8.000       -0.1154634E+01                 0.1522033E-04
                          5S1/2  5.0  0.0  0.5     2.000       -0.2863514E+01                 0.7979521E-05
                          5P1/2  5.0  1.0  0.5     2.000       -0.1813289E+01                 0.7246225E-05
                          5P3/2  5.0  1.0  1.5     4.000       -0.1448762E+01                 0.6602120E-05
                          5D3/2  5.0  2.0  1.5     4.000       -0.1486933E+00                 0.3973088E-05
                          5D5/2  5.0  2.0  2.5     0.000       -0.1223153E+00                 0.3735081E-05
                          6S1/2  6.0  0.0  0.5     2.000       -0.1847434E+00                 0.1808440E-05


                                        NUCLEAR CHARGE=   74.000000
                            INTEGRAL OF CHARGE DENSITY=   74.000000
                           SUM OF THE ORBITAL ENERGIES=  -9938.8529
                                          TOTAL ENERGY= -16164.2530
                                        KINETIC ENERGY=  18217.9700
                             NUCLEAR ATTRACTION ENERGY= -40391.9132
                             ELECTRON REPULSION ENERGY=   6333.2551
                                       EXCHANGE ENERGY=   -323.5649

 *******************************************************************************

                             D I R A C   E X I T
 NORMAL TERMINATION



 =================
 Timing Statistics
 =================
  
 Total Used :                     CPU=        0.68      System=        0.00     Elapsed=        0.70

 Calls  Section                     ( Mean, Percentage )
 ---------------------------------------------------------------------------------------------------
     2  ><      ................      0.00    0.00             0.00    0.00             0.00    0.00
     1  EXIT PROCEDURE .........      0.68  100.00             0.00  100.00             0.70  100.00


 Currently Open Files (EXIT00)
 ====================

 Unit    Access Format  Status   Type       Ident (file)
 -------------------------------------------------------
   3      SEQ    FORM   TRANSP  NORMAL      LOGFILE
                                          ( logfile )
 
Create W   file=TZP-W.4d
XC
  GGA PBE
End
relativistic ZORA
Corepotentials t12.rel
End

 *******************************************************************************
 *                                                                             *
 *  -------------------------------------                                      *
 *   Amsterdam Density Functional  (ADF)         2019                          *
 *  -------------------------------------                                      *
 *                                               r79301 2019-11-09             *
 *                                                                             *
 *                                                                             *
 *                              =================                              *
 *                              |               |                              *
 *                              |     A D F     |                              *
 *                              |               |                              *
 *                              =================                              *
 *                                                                             *
 *                                                                             *
 *   Online information and documentation:  https://www.scm.com/support/       *
 *   E-mail:  support@scm.com   info@scm.com                                   *
 *                                                                             *
 *   Scientific publications using ADF results must be properly referenced     *
 *   See the User Manuals (or the web site) for recommended citations          *
 *   The terms and conditions of the End User License Agreement apply to       *
 *   the use of ADF, https://www.scm.com/license-terms/                        *
 *                                                                             *
 **********************  x86_64_linux_intel / intelmpi  ************************
 
 
 
  
 ADF 2019  RunTime: Oct21-2020 11:13:26  Nodes: 1  Procs: 1

 Temporary files are created in /scratch/kid_0.931931412 (0x58465342)

 Tungsten (TZP, 4d frozen)



 ===========================
 A T T A C H E D   F I L E S
 ===========================
  
 CREATE - Data File:    TZP-W.4d
                        Tungsten (TZP, 4d frozen)
 Core Potentials:
         file : t12.rel



 ===============================
 M O D E L   P A R A M E T E R S
 ===============================
  
 DENSITY FUNCTIONAL POTENTIAL (scf)
    LDA:                               PW92                                    == Not Default ==
    Gradient Corrections:              PBEc PBEx                               == Not Default ==

 SPIN  (restricted / unrestr.)
    Molecule:                          Restricted                               

 OTHER ASPECTS
    Relativistic Corrections:          scalar (ZORA,MAPA)                      == Not Default ==

    Nuclear Charge Density Model:      Point Charge Nuclei                      
    Core Treatment:                    Frozen Orbital(s)                        

    Hyperfine or Zeeman Interaction:   ---                                      



 =====================================
 S Y M M E T R Y ,   E L E C T R O N S
 =====================================
  
 Symmetry: ATOM

 Irreducible Representations, including subspecies
 -------------------------------------------------
 S
 P:x  P:y  P:z
 D:z2  D:x2-y2  D:xy  D:xz  D:yz
 F:z3  F:z  F:xyz  F:z2x  F:z2y  F:x  F:y


 Configuration of Valence Electrons
 ==================================

          Occupation Numbers
          -------------------------------------------------
 S        2*2
 P        6
 D        4
 F        14
          -------------------------------------------------

 Total:   28

 Net Charge: 0 (Nuclei minus Electrons)

 Preset values for MO occupations will be applied through SCF cycle no. 1000000
 Thereafter, the program will assign electrons to MOs that are spatially
 similar to the occupied MOs in a "reference" cycle ("KeepOrbitals").
 The reference cycle is always the PREVIOUS cycle: it will evolve with
 the SCF procedure.



 ================================
 (Slater-type)  F U N C T I O N S  ***  (Basis and Fit)  ***
 ================================
  

 Atom Type    1  (W)
 ==============

 Valence Basis Sets:  25
 -----------------------
   1 S   52.000000
   2 S   33.250000
   3 S   19.100000
   4 S   11.650000
   2 P   36.850000
   3 P   16.500000
   4 P   11.550000
   3 D   20.100000
   4 D   10.300000
   1 S  163.900000
   5 S    6.050000
   5 S    3.950000
   6 S    2.850000
   6 S    1.800000
   6 S    1.140000
   5 P    5.900000
   5 P    4.000000
   5 P    2.700000
   5 D    4.150000
   5 D    2.250000
   5 D    1.200000
   4 F   13.550000
   4 F    7.050000
   4 F    3.550000
   6 P    1.800000

 Frozen Core Shells
 ------------------
    S:  4
    P:  3
    D:  2


 BAS: List of all Elementary Cartesian Basis Functions
 =====================================================

 The numbering in the list below (to the right of the function characteristics) is referred
 to in print-outs of MO eigenvectors and Mulliken populations in the BAS representation
 (as contrasted to the SFO representation).

 Notes:
 1. The functions are characterized by a polynomial prefactor (powers of x,y,z and r) and
    an exponential decay factor alpha.
 2. Since the basis sets are specific for an atom TYPE, the individual functions occur on
    all atoms of that type.
 3. The word 'Core' in the left margin signals that it is a Core Function (CF) : not a
    degree of freedom in the valence set, but only used to ensure orthogonalization of
    the other valence basis functions on the frozen Core Orbitals.


 (power of) X  Y  Z  R     Alpha  on Atom
            ==========     =====     ==========

 W                                    1
                                  ---------------------------------------------------------------------------
    Core    0  0  0  0    52.000      1
    Core    0  0  0  1    33.250      2
    Core    0  0  0  2    19.100      3
    Core    0  0  0  3    11.650      4
    Core    1  0  0  0    36.850      5
    Core    0  1  0  0    36.850      6
    Core    0  0  1  0    36.850      7
    Core    1  0  0  1    16.500      8
    Core    0  1  0  1    16.500      9
    Core    0  0  1  1    16.500     10
    Core    1  0  0  2    11.550     11
    Core    0  1  0  2    11.550     12
    Core    0  0  1  2    11.550     13
    Core    2  0  0  0    20.100     14
    Core    1  1  0  0    20.100     15
    Core    1  0  1  0    20.100     16
    Core    0  2  0  0    20.100     17
    Core    0  1  1  0    20.100     18
    Core    0  0  2  0    20.100     19
    Core    2  0  0  1    10.300     20
    Core    1  1  0  1    10.300     21
    Core    1  0  1  1    10.300     22
    Core    0  2  0  1    10.300     23
    Core    0  1  1  1    10.300     24
    Core    0  0  2  1    10.300     25
            0  0  0  0   163.900     26
            0  0  0  4     6.050     27
            0  0  0  4     3.950     28
            0  0  0  5     2.850     29
            0  0  0  5     1.800     30
            0  0  0  5     1.140     31
            1  0  0  3     5.900     32
            0  1  0  3     5.900     33
            0  0  1  3     5.900     34
            1  0  0  3     4.000     35
            0  1  0  3     4.000     36
            0  0  1  3     4.000     37
            1  0  0  3     2.700     38
            0  1  0  3     2.700     39
            0  0  1  3     2.700     40
            2  0  0  2     4.150     41
            1  1  0  2     4.150     42
            1  0  1  2     4.150     43
            0  2  0  2     4.150     44
            0  1  1  2     4.150     45
            0  0  2  2     4.150     46
            2  0  0  2     2.250     47
            1  1  0  2     2.250     48
            1  0  1  2     2.250     49
            0  2  0  2     2.250     50
            0  1  1  2     2.250     51
            0  0  2  2     2.250     52
            2  0  0  2     1.200     53
            1  1  0  2     1.200     54
            1  0  1  2     1.200     55
            0  2  0  2     1.200     56
            0  1  1  2     1.200     57
            0  0  2  2     1.200     58
            3  0  0  0    13.550     59
            2  1  0  0    13.550     60
            2  0  1  0    13.550     61
            1  2  0  0    13.550     62
            1  1  1  0    13.550     63
            1  0  2  0    13.550     64
            0  3  0  0    13.550     65
            0  2  1  0    13.550     66
            0  1  2  0    13.550     67
            0  0  3  0    13.550     68
            3  0  0  0     7.050     69
            2  1  0  0     7.050     70
            2  0  1  0     7.050     71
            1  2  0  0     7.050     72
            1  1  1  0     7.050     73
            1  0  2  0     7.050     74
            0  3  0  0     7.050     75
            0  2  1  0     7.050     76
            0  1  2  0     7.050     77
            0  0  3  0     7.050     78
            3  0  0  0     3.550     79
            2  1  0  0     3.550     80
            2  0  1  0     3.550     81
            1  2  0  0     3.550     82
            1  1  1  0     3.550     83
            1  0  2  0     3.550     84
            0  3  0  0     3.550     85
            0  2  1  0     3.550     86
            0  1  2  0     3.550     87
            0  0  3  0     3.550     88
            1  0  0  4     1.800     89
            0  1  0  4     1.800     90
            0  0  1  4     1.800     91

 Total number of charge fitting functions (nprimf)       329
 Total number of Cartesian basis functions (naos)         91
 Total number of Cartesian core functions  (ncos)         25



 BAS: List of all Elementary Cartesian Basis Functions
 =====================================================

 The numbering in the list below (to the right of the function characteristics) is referred
 to in print-outs of MO eigenvectors and Mulliken populations in the BAS representation
 (as contrasted to the SFO representation).

 Notes:
 1. The functions are characterized by a polynomial prefactor (powers of x,y,z and r) and
    an exponential decay factor alpha.
 2. Since the basis sets are specific for an atom TYPE, the individual functions occur on
    all atoms of that type.
 3. The word 'Core' in the left margin signals that it is a Core Function (CF) : not a
    degree of freedom in the valence set, but only used to ensure orthogonalization of
    the other valence basis functions on the frozen Core Orbitals.


 (power of) X  Y  Z  R     Alpha  on Atom
            ==========     =====     ==========

 W                                    1
                                  ---------------------------------------------------------------------------
    Core    0  0  0  0    52.000      1
    Core    0  0  0  1    33.250      2
    Core    0  0  0  2    19.100      3
    Core    0  0  0  3    11.650      4
    Core    1  0  0  0    36.850      5
    Core    0  1  0  0    36.850      6
    Core    0  0  1  0    36.850      7
    Core    1  0  0  1    16.500      8
    Core    0  1  0  1    16.500      9
    Core    0  0  1  1    16.500     10
    Core    1  0  0  2    11.550     11
    Core    0  1  0  2    11.550     12
    Core    0  0  1  2    11.550     13
    Core    2  0  0  0    20.100     14
    Core    1  1  0  0    20.100     15
    Core    1  0  1  0    20.100     16
    Core    0  2  0  0    20.100     17
    Core    0  1  1  0    20.100     18
    Core    0  0  2  0    20.100     19
    Core    2  0  0  1    10.300     20
    Core    1  1  0  1    10.300     21
    Core    1  0  1  1    10.300     22
    Core    0  2  0  1    10.300     23
    Core    0  1  1  1    10.300     24
    Core    0  0  2  1    10.300     25
            0  0  0  0   163.900     26
            0  0  0  4     6.050     27
            0  0  0  4     3.950     28
            0  0  0  5     2.850     29
            0  0  0  5     1.800     30
            0  0  0  5     1.140     31
            1  0  0  3     5.900     32
            0  1  0  3     5.900     33
            0  0  1  3     5.900     34
            1  0  0  3     4.000     35
            0  1  0  3     4.000     36
            0  0  1  3     4.000     37
            1  0  0  3     2.700     38
            0  1  0  3     2.700     39
            0  0  1  3     2.700     40
            2  0  0  2     4.150     41
            1  1  0  2     4.150     42
            1  0  1  2     4.150     43
            0  2  0  2     4.150     44
            0  1  1  2     4.150     45
            0  0  2  2     4.150     46
            2  0  0  2     2.250     47
            1  1  0  2     2.250     48
            1  0  1  2     2.250     49
            0  2  0  2     2.250     50
            0  1  1  2     2.250     51
            0  0  2  2     2.250     52
            2  0  0  2     1.200     53
            1  1  0  2     1.200     54
            1  0  1  2     1.200     55
            0  2  0  2     1.200     56
            0  1  1  2     1.200     57
            0  0  2  2     1.200     58
            3  0  0  0    13.550     59
            2  1  0  0    13.550     60
            2  0  1  0    13.550     61
            1  2  0  0    13.550     62
            1  1  1  0    13.550     63
            1  0  2  0    13.550     64
            0  3  0  0    13.550     65
            0  2  1  0    13.550     66
            0  1  2  0    13.550     67
            0  0  3  0    13.550     68
            3  0  0  0     7.050     69
            2  1  0  0     7.050     70
            2  0  1  0     7.050     71
            1  2  0  0     7.050     72
            1  1  1  0     7.050     73
            1  0  2  0     7.050     74
            0  3  0  0     7.050     75
            0  2  1  0     7.050     76
            0  1  2  0     7.050     77
            0  0  3  0     7.050     78
            3  0  0  0     3.550     79
            2  1  0  0     3.550     80
            2  0  1  0     3.550     81
            1  2  0  0     3.550     82
            1  1  1  0     3.550     83
[...]
 <Oct21-2020> <11:20:39>  >>>> ENGRAD
 <Oct21-2020> <11:20:41>  current energy                               -4.90061033 Hartree
 <Oct21-2020> <11:20:41>  energy change                      -0.00001366     0.00100000    T
 <Oct21-2020> <11:20:41>  constrained gradient max            0.00101895     0.00100000    F
 <Oct21-2020> <11:20:41>  constrained gradient rms            0.00032905     0.00066667    T
 <Oct21-2020> <11:20:41>  gradient max                        0.00101895
 <Oct21-2020> <11:20:41>  gradient rms                        0.00032905
 <Oct21-2020> <11:20:41>  cart. step max                      0.01696413     0.01000000    F
 <Oct21-2020> <11:20:41>  cart. step rms                      0.00584654     0.00666667    T
  Coordinates in Geometry Cycle 20
    Atom         X           Y           Z   (Angstrom)
    1.W        13.740036   10.924658    2.412870
    2.O        13.006588   11.011492    0.631592
    3.W        11.646434   11.283727    4.903036
    4.W         9.700201   11.318063    2.202784
    5.O        11.695902   12.783656    5.831862
    6.O        14.426582    9.303668    2.415823
    7.O        10.412970   10.729862    0.639832
    8.O         9.269861   13.008107    1.909611
    9.O        13.533771   11.172934    4.357287
   10.O        15.055366   12.073255    2.181360
   11.O        11.729499   11.198528    2.842620
   12.O        11.603238    9.914079    6.018054
   13.O         9.847116   11.280879    4.265139
   14.O         8.184851   10.394088    2.266954
   15.H        11.985484   10.901506    0.594998
 <Oct21-2020> <11:20:41>  >>>> CORORT
 <Oct21-2020> <11:20:41>  >>>> CLSMAT
 <Oct21-2020> <11:20:41>  >>>> ORTHON
 <Oct21-2020> <11:20:41>  >>>> GENPT
 <Oct21-2020> <11:20:41>  Block Length= 128
 <Oct21-2020> <11:20:41>  >>>> PTBAS
 <Oct21-2020> <11:20:42>  combining surface points...
 <Oct21-2020> <11:20:42>  combining surface points...
 <Oct21-2020> <11:20:42>  combining surface points...
 <Oct21-2020> <11:20:42>  >>>> CYCLE
 <Oct21-2020> <11:20:44>              |Error|         MaxErr       Wt(A-DIIS)
 <Oct21-2020> <11:20:44>      1      0.63207043      0.28907187
 <Oct21-2020> <11:20:45>      2      0.09722413      0.01538985    100.0
 <Oct21-2020> <11:20:46>      3      0.05518133      0.01061081    100.0
 <Oct21-2020> <11:20:47>      4      0.10086109      0.01894905    100.0
 <Oct21-2020> <11:20:48>      5      0.02187779      0.00336911      2.4
 <Oct21-2020> <11:20:49>      6      0.02249612      0.00300700      2.0
 <Oct21-2020> <11:20:50>      7      0.00638901      0.00110408      0.1
 <Oct21-2020> <11:20:51>      8      0.00374491      0.00066927      0.0
 <Oct21-2020> <11:20:52>      9      0.00173377      0.00026355      0.0
 <Oct21-2020> <11:20:53>     10      0.00083233      0.00016903      0.0
 <Oct21-2020> <11:20:54>     11      0.00022668      0.00004055      0.0
 <Oct21-2020> <11:20:55>     12      0.00008534      0.00001166      0.0
 <Oct21-2020> <11:20:56>     13      0.00005431      0.00000806      0.0
 <Oct21-2020> <11:20:57>     14      0.00001331      0.00000250      0.0
 <Oct21-2020> <11:20:57>     15      0.00001245      0.00000288      0.0
 <Oct21-2020> <11:20:58>     16      0.00000251      0.00000034      0.0
 <Oct21-2020> <11:20:59>  SCF converged
 <Oct21-2020> <11:20:59>     17      0.00000101      0.00000016      0.0
 <Oct21-2020> <11:21:00>  >>>> TOTEN
 <Oct21-2020> <11:21:01>  >>>> POPAN
 <Oct21-2020> <11:21:01>  >>>> DEBYE
 <Oct21-2020> <11:21:01>  >>>> ENGRAD
 <Oct21-2020> <11:21:03>  current energy                               -4.90060731 Hartree
 <Oct21-2020> <11:21:03>  energy change                       0.00000302     0.00100000    T
 <Oct21-2020> <11:21:03>  constrained gradient max            0.00089189     0.00100000    T
 <Oct21-2020> <11:21:03>  constrained gradient rms            0.00022639     0.00066667    T
 <Oct21-2020> <11:21:03>  gradient max                        0.00089189
 <Oct21-2020> <11:21:03>  gradient rms                        0.00022639
 <Oct21-2020> <11:21:03>  cart. step max                      0.00763571     0.01000000    T
 <Oct21-2020> <11:21:03>  cart. step rms                      0.00280537     0.00666667    T
 <Oct21-2020> <11:21:03>  GEOMETRY CONVERGED
 <Oct21-2020> <11:21:03>  Calculating Energy Terms for Final Geometry
  Coordinates in Geometry Cycle 20
    Atom         X           Y           Z   (Angstrom)
    1.W        13.740036   10.924658    2.412870
    2.O        13.006588   11.011492    0.631592
    3.W        11.646434   11.283727    4.903036
    4.W         9.700201   11.318063    2.202784
    5.O        11.695902   12.783656    5.831862
    6.O        14.426582    9.303668    2.415823
    7.O        10.412970   10.729862    0.639832
    8.O         9.269861   13.008107    1.909611
    9.O        13.533771   11.172934    4.357287
   10.O        15.055366   12.073255    2.181360
   11.O        11.729499   11.198528    2.842620
   12.O        11.603238    9.914079    6.018054
   13.O         9.847116   11.280879    4.265139
   14.O         8.184851   10.394088    2.266954
   15.H        11.985484   10.901506    0.594998
 <Oct21-2020> <11:21:03>  >>>> CORORT
 <Oct21-2020> <11:21:03>  >>>> CLSMAT
 <Oct21-2020> <11:21:03>  >>>> ORTHON
 <Oct21-2020> <11:21:03>  >>>> GENPT
 <Oct21-2020> <11:21:03>  Block Length= 128
 <Oct21-2020> <11:21:04>  >>>> PTBAS
 <Oct21-2020> <11:21:04>  combining surface points...
 <Oct21-2020> <11:21:04>  combining surface points...
 <Oct21-2020> <11:21:04>  combining surface points...
 <Oct21-2020> <11:21:04>  >>>> CYCLE
 <Oct21-2020> <11:21:06>              |Error|         MaxErr       Wt(A-DIIS)
 <Oct21-2020> <11:21:06>      1      0.04670898      0.00562364
 <Oct21-2020> <11:21:07>      2      0.09698171      0.01741942    100.0
 <Oct21-2020> <11:21:08>      3      0.04875550      0.00824715    100.0
 <Oct21-2020> <11:21:09>      4      0.08372269      0.01468110    100.0
 <Oct21-2020> <11:21:10>      5      0.03497781      0.00606287      5.1
 <Oct21-2020> <11:21:11>      6      0.02276900      0.00362109      2.6
 <Oct21-2020> <11:21:12>      7      0.00733207      0.00128249      0.3
 <Oct21-2020> <11:21:13>      8      0.00410363      0.00068529      0.0
 <Oct21-2020> <11:21:14>      9      0.00178914      0.00031820      0.0
 <Oct21-2020> <11:21:15>     10      0.00088847      0.00016352      0.0
 <Oct21-2020> <11:21:16>     11      0.00023177      0.00003793      0.0
 <Oct21-2020> <11:21:17>     12      0.00009688      0.00001486      0.0
 <Oct21-2020> <11:21:18>     13      0.00005328      0.00000846      0.0
 <Oct21-2020> <11:21:19>     14      0.00001535      0.00000281      0.0
 <Oct21-2020> <11:21:20>     15      0.00001190      0.00000228      0.0
 <Oct21-2020> <11:21:21>     16      0.00000409      0.00000062      0.0
 <Oct21-2020> <11:21:21>  SCF converged
 <Oct21-2020> <11:21:21>     17      0.00000122      0.00000019      0.0
 <Oct21-2020> <11:21:22>  >>>> TOTEN
 <Oct21-2020> <11:21:24>  QTAIM: determining topology...
 <Oct21-2020> <11:21:26>  >>>> POPAN
 <Oct21-2020> <11:21:26>  >>>> DEBYE
 <Oct21-2020> <11:21:26>  >>>> AMETS
 <Oct21-2020> <11:21:26>  >>>> POPUL
 <Oct21-2020> <11:21:26>   Bond Energy          -4.90060731 a.u.
 <Oct21-2020> <11:21:26>   Bond Energy        -133.35230995 eV
 <Oct21-2020> <11:21:26>   Bond Energy       -3075.18       kcal/mol
 <Oct21-2020> <11:21:26>  >>>> ENHESS
 <Oct21-2020> <11:21:29>  === NUCLEUS:     1
 <Oct21-2020> <11:22:28>  === NUCLEUS:     2
 <Oct21-2020> <11:23:25>  === NUCLEUS:     3
 <Oct21-2020> <11:24:21>  === NUCLEUS:     4
 <Oct21-2020> <11:25:13>  === NUCLEUS:     5
 <Oct21-2020> <11:26:07>  === NUCLEUS:     6
 <Oct21-2020> <11:26:59>  === NUCLEUS:     7
 <Oct21-2020> <11:27:53>  === NUCLEUS:     8
 <Oct21-2020> <11:28:45>  === NUCLEUS:     9
 <Oct21-2020> <11:29:37>  === NUCLEUS:    10
 <Oct21-2020> <11:30:31>  === NUCLEUS:    11
 <Oct21-2020> <11:31:23>  === NUCLEUS:    12
 <Oct21-2020> <11:32:15>  === NUCLEUS:    13
 <Oct21-2020> <11:33:08>  === NUCLEUS:    14
 <Oct21-2020> <11:34:00>  === NUCLEUS:    15
 <Oct21-2020> <11:34:51>  >>>> CALC_HESS_PMAT
 <Oct21-2020> <11:34:57>  >>>> CALC_HESS_WMAT
 <Oct21-2020> <11:34:59>  Symmetry  : NOSYM
 <Oct21-2020> <11:34:59>  >>>> FRAGM
 <Oct21-2020> <11:34:59>  Geometry symmetry displacement    1 out of    4
  Coordinates in Geometry Cycle 20
    Atom         X           Y           Z   (Angstrom)
    1.W        13.740038   10.924578    2.412828
    2.O        13.006648   11.012018    0.631570
    3.W        11.646359   11.283790    4.903082
    4.W         9.700280   11.318052    2.202768
    5.O        11.696161   12.783873    5.831669
    6.O        14.426550    9.303591    2.415566
    7.O        10.413014   10.730929    0.639384
    8.O         9.269259   13.008031    1.910186
    9.O        13.533694   11.173052    4.357162
   10.O        15.055459   12.073119    2.181495
   11.O        11.729249   11.197179    2.842676
   12.O        11.603138    9.914348    6.018335
   13.O         9.847076   11.281396    4.265313
   14.O         8.185415   10.393300    2.266901
   15.H        11.985527   10.902184    0.594839
 <Oct21-2020> <11:34:59>  >>>> CORORT
 <Oct21-2020> <11:34:59>  >>>> CLSMAT
 <Oct21-2020> <11:34:59>  >>>> ORTHON
 <Oct21-2020> <11:34:59>  >>>> GENPT
 <Oct21-2020> <11:34:59>  Block Length= 128
 <Oct21-2020> <11:34:59>  >>>> PTBAS
 <Oct21-2020> <11:35:00>  combining surface points...
 <Oct21-2020> <11:35:00>  combining surface points...
 <Oct21-2020> <11:35:00>  combining surface points...
 <Oct21-2020> <11:35:00>  >>>> CYCLE
 <Oct21-2020> <11:35:02>              |Error|         MaxErr       Wt(A-DIIS)
 <Oct21-2020> <11:35:02>      1      0.06004435      0.01596812
 <Oct21-2020> <11:35:03>      2      0.09694345      0.01520793    100.0
 <Oct21-2020> <11:35:04>      3      0.04861592      0.00832254    100.0
 <Oct21-2020> <11:35:05>      4      0.08322877      0.01532712    100.0
 <Oct21-2020> <11:35:06>      5      0.03563640      0.00696897      6.0
 <Oct21-2020> <11:35:07>      6      0.02268972      0.00314304      2.2
 <Oct21-2020> <11:35:08>      7      0.00711295      0.00128620      0.3
 <Oct21-2020> <11:35:09>      8      0.00410537      0.00071955      0.0
 <Oct21-2020> <11:35:10>      9      0.00179080      0.00029871      0.0
 <Oct21-2020> <11:35:11>     10      0.00089001      0.00018705      0.0
 <Oct21-2020> <11:35:12>     11      0.00023222      0.00004027      0.0
 <Oct21-2020> <11:35:12>     12      0.00009713      0.00001486      0.0
 <Oct21-2020> <11:35:13>     13      0.00005358      0.00000770      0.0
 <Oct21-2020> <11:35:14>     14      0.00001527      0.00000301      0.0
 <Oct21-2020> <11:35:15>     15      0.00001183      0.00000254      0.0
 <Oct21-2020> <11:35:16>     16      0.00000422      0.00000065      0.0
 <Oct21-2020> <11:35:16>  SCF converged
 <Oct21-2020> <11:35:17>     17      0.00000121      0.00000019      0.0
 <Oct21-2020> <11:35:17>  >>>> TOTEN
 <Oct21-2020> <11:35:18>  >>>> POPAN
 <Oct21-2020> <11:35:18>  >>>> DEBYE
 <Oct21-2020> <11:35:18>  >>>> ENGRAD
 <Oct21-2020> <11:35:20>  Geometry symmetry displacement    2 out of    4
  Coordinates in Geometry Cycle 20
    Atom         X           Y           Z   (Angstrom)
    1.W        13.740033   10.924738    2.412911
    2.O        13.006528   11.010966    0.631614
    3.W        11.646508   11.283665    4.902989
    4.W         9.700121   11.318074    2.202799
    5.O        11.695642   12.783438    5.832054
    6.O        14.426613    9.303745    2.416080
    7.O        10.412926   10.728794    0.640280
    8.O         9.270463   13.008183    1.909036
    9.O        13.533847   11.172817    4.357413
   10.O        15.055273   12.073390    2.181225
   11.O        11.729749   11.199878    2.842563
   12.O        11.603339    9.913810    6.017772
   13.O         9.847157   11.280362    4.264965
   14.O         8.184287   10.394876    2.267007
   15.H        11.985442   10.900829    0.595157
 <Oct21-2020> <11:35:20>  >>>> CORORT
 <Oct21-2020> <11:35:20>  >>>> CLSMAT
 <Oct21-2020> <11:35:20>  >>>> ORTHON
 <Oct21-2020> <11:35:20>  >>>> GENPT
 <Oct21-2020> <11:35:20>  Block Length= 128
 <Oct21-2020> <11:35:20>  >>>> PTBAS
 <Oct21-2020> <11:35:21>  combining surface points...
 <Oct21-2020> <11:35:21>  combining surface points...
 <Oct21-2020> <11:35:21>  combining surface points...
 <Oct21-2020> <11:35:21>  >>>> CYCLE
 <Oct21-2020> <11:35:23>              |Error|         MaxErr       Wt(A-DIIS)
 <Oct21-2020> <11:35:23>      1      0.08887961      0.03187880
 <Oct21-2020> <11:35:24>      2      0.09708020      0.01521064    100.0
 <Oct21-2020> <11:35:25>      3      0.04915225      0.00851035    100.0
 <Oct21-2020> <11:35:26>      4      0.08517228      0.01572111    100.0
 <Oct21-2020> <11:35:27>      5      0.03330943      0.00636594      5.4
 <Oct21-2020> <11:35:28>      6      0.02268121      0.00306031      2.1
 <Oct21-2020> <11:35:29>      7      0.00704015      0.00125788      0.3
 <Oct21-2020> <11:35:30>      8      0.00409589      0.00071661      0.0
 <Oct21-2020> <11:35:31>      9      0.00178834      0.00030568      0.0
 <Oct21-2020> <11:35:32>     10      0.00088711      0.00018626      0.0
 <Oct21-2020> <11:35:33>     11      0.00023205      0.00004034      0.0
 <Oct21-2020> <11:35:34>     12      0.00009698      0.00001510      0.0
 <Oct21-2020> <11:35:35>     13      0.00005371      0.00000795      0.0
 <Oct21-2020> <11:35:36>     14      0.00001531      0.00000300      0.0
 <Oct21-2020> <11:35:37>     15      0.00001203      0.00000259      0.0
 <Oct21-2020> <11:35:37>     16      0.00000407      0.00000063      0.0
 <Oct21-2020> <11:35:38>  SCF converged
 <Oct21-2020> <11:35:38>     17      0.00000119      0.00000019      0.0
 <Oct21-2020> <11:35:39>  >>>> TOTEN
 <Oct21-2020> <11:35:39>  >>>> POPAN
 <Oct21-2020> <11:35:39>  >>>> DEBYE
 <Oct21-2020> <11:35:39>  >>>> ENGRAD
 <Oct21-2020> <11:35:42>  Old frequency:    -28.64316, new:    -16.21893
 <Oct21-2020> <11:35:42>  Geometry symmetry displacement    3 out of    4
  Coordinates in Geometry Cycle 20
    Atom         X           Y           Z   (Angstrom)
    1.W        13.740053   10.924642    2.412851
    2.O        13.006459   11.010769    0.631599
    3.W        11.646394   11.283647    4.903053
    4.W         9.700210   11.318117    2.202784
    5.O        11.696067   12.783760    5.831585
    6.O        14.427797    9.304162    2.415822
    7.O        10.412763   10.729733    0.639804
    8.O         9.270465   13.008316    1.909620
    9.O        13.533719   11.172733    4.357282
   10.O        15.054554   12.074174    2.181260
   11.O        11.729396   11.197477    2.842671
   12.O        11.603049    9.914235    6.018342
   13.O         9.847079   11.281072    4.265174
   14.O         8.184562   10.394638    2.266976
   15.H        11.985341   10.900956    0.595032
 <Oct21-2020> <11:35:42>  >>>> CORORT
 <Oct21-2020> <11:35:42>  >>>> CLSMAT
 <Oct21-2020> <11:35:42>  >>>> ORTHON
 <Oct21-2020> <11:35:42>  >>>> GENPT
 <Oct21-2020> <11:35:42>  Block Length= 128
 <Oct21-2020> <11:35:42>  >>>> PTBAS
 <Oct21-2020> <11:35:42>  combining surface points...
 <Oct21-2020> <11:35:42>  combining surface points...
 <Oct21-2020> <11:35:42>  combining surface points...
 <Oct21-2020> <11:35:42>  >>>> CYCLE
 <Oct21-2020> <11:35:44>              |Error|         MaxErr       Wt(A-DIIS)
 <Oct21-2020> <11:35:44>      1      0.07185485      0.02073755
 <Oct21-2020> <11:35:46>      2      0.09690654      0.01519240    100.0
 <Oct21-2020> <11:35:47>      3      0.04849989      0.00826710    100.0
 <Oct21-2020> <11:35:48>      4      0.08279505      0.01521134    100.0
 <Oct21-2020> <11:35:49>      5      0.03619580      0.00709955      6.2
 <Oct21-2020> <11:35:50>      6      0.02269582      0.00314871      2.2
 <Oct21-2020> <11:35:51>      7      0.00712118      0.00128742      0.3
 <Oct21-2020> <11:35:51>      8      0.00410993      0.00071982      0.0
 <Oct21-2020> <11:35:52>      9      0.00179213      0.00029882      0.0
 <Oct21-2020> <11:35:53>     10      0.00089056      0.00018760      0.0
 <Oct21-2020> <11:35:54>     11      0.00023223      0.00004031      0.0
 <Oct21-2020> <11:35:55>     12      0.00009721      0.00001491      0.0
 <Oct21-2020> <11:35:56>     13      0.00005356      0.00000769      0.0
 <Oct21-2020> <11:35:57>     14      0.00001523      0.00000300      0.0
 <Oct21-2020> <11:35:58>     15      0.00001177      0.00000253      0.0
 <Oct21-2020> <11:35:59>     16      0.00000425      0.00000065      0.0
 <Oct21-2020> <11:35:59>  SCF converged
 <Oct21-2020> <11:36:00>     17      0.00000121      0.00000019      0.0
 <Oct21-2020> <11:36:00>  >>>> TOTEN
 <Oct21-2020> <11:36:01>  >>>> POPAN
 <Oct21-2020> <11:36:01>  >>>> DEBYE
 <Oct21-2020> <11:36:01>  >>>> ENGRAD
 <Oct21-2020> <11:36:03>  Geometry symmetry displacement    4 out of    4
  Coordinates in Geometry Cycle 20
    Atom         X           Y           Z   (Angstrom)
    1.W        13.740019   10.924674    2.412888
    2.O        13.006716   11.012215    0.631585
    3.W        11.646473   11.283807    4.903019
    4.W         9.700192   11.318009    2.202783
    5.O        11.695737   12.783551    5.832139
    6.O        14.425366    9.303174    2.415824
    7.O        10.413178   10.729991    0.639860
    8.O         9.269257   13.007898    1.909602
    9.O        13.533823   11.173136    4.357292
   10.O        15.056179   12.072336    2.181460
   11.O        11.729601   11.199580    2.842568
   12.O        11.603428    9.913924    6.017765
   13.O         9.847154   11.280687    4.265105
   14.O         8.185140   10.393538    2.266931
   15.H        11.985627   10.902056    0.594964
 <Oct21-2020> <11:36:03>  >>>> CORORT
 <Oct21-2020> <11:36:03>  >>>> CLSMAT
 <Oct21-2020> <11:36:03>  >>>> ORTHON
 <Oct21-2020> <11:36:03>  >>>> GENPT
 <Oct21-2020> <11:36:03>  Block Length= 128
 <Oct21-2020> <11:36:03>  >>>> PTBAS
 <Oct21-2020> <11:36:04>  combining surface points...
 <Oct21-2020> <11:36:04>  combining surface points...
 <Oct21-2020> <11:36:04>  combining surface points...
 <Oct21-2020> <11:36:04>  >>>> CYCLE
 <Oct21-2020> <11:36:06>              |Error|         MaxErr       Wt(A-DIIS)
 <Oct21-2020> <11:36:06>      1      0.09432672      0.04235121
 <Oct21-2020> <11:36:07>      2      0.09703161      0.01520459    100.0
 <Oct21-2020> <11:36:08>      3      0.04914012      0.00851475    100.0
 <Oct21-2020> <11:36:09>      4      0.08515530      0.01572961    100.0
 <Oct21-2020> <11:36:10>      5      0.03341457      0.00639945      5.5
 <Oct21-2020> <11:36:11>      6      0.02268360      0.00308135      2.1
 <Oct21-2020> <11:36:12>      7      0.00704409      0.00125973      0.3
 <Oct21-2020> <11:36:13>      8      0.00409215      0.00071616      0.0
 <Oct21-2020> <11:36:14>      9      0.00178785      0.00030278      0.0
 <Oct21-2020> <11:36:15>     10      0.00088637      0.00018608      0.0
 <Oct21-2020> <11:36:16>     11      0.00023194      0.00004035      0.0
 <Oct21-2020> <11:36:17>     12      0.00009668      0.00001491      0.0
 <Oct21-2020> <11:36:18>     13      0.00005377      0.00000787      0.0
 <Oct21-2020> <11:36:18>     14      0.00001529      0.00000299      0.0
 <Oct21-2020> <11:36:19>     15      0.00001201      0.00000259      0.0
 <Oct21-2020> <11:36:20>     16      0.00000408      0.00000063      0.0
 <Oct21-2020> <11:36:21>  SCF converged
 <Oct21-2020> <11:36:21>     17      0.00000118      0.00000019      0.0
 <Oct21-2020> <11:36:22>  >>>> TOTEN
 <Oct21-2020> <11:36:22>  >>>> POPAN
 <Oct21-2020> <11:36:22>  >>>> DEBYE
 <Oct21-2020> <11:36:22>  >>>> ENGRAD
 <Oct21-2020> <11:36:24>  Old frequency:    -13.50184, new:     23.17973
 <Oct21-2020> <11:36:24>  NOTE: Some frequencies have been re-calculated by numerical differentiation
 <Oct21-2020> <11:36:24>        Check the text output file for new values!
 <Oct21-2020> <11:36:24>  NORMAL TERMINATION
 <Oct21-2020> <11:36:24>  END
