
 *******************************************************************************
 *                                                                             *
 *  -------------------------------------                                      *
 *   Amsterdam Density Functional  (ADF)         2019                          *
 *  -------------------------------------                                      *
 *                                               r79301 2019-11-09             *
 *                                                                             *
 *                                                                             *
 *                            =====================                            *
 *                            |                   |                            *
 *                            |     D I R A C     |                            *
 *                            |                   |                            *
 *                            =====================                            *
 *                                                                             *
 *                                                                             *
 *   Online information and documentation:  https://www.scm.com/support/       *
 *   E-mail:  support@scm.com   info@scm.com                                   *
 *                                                                             *
 *   Scientific publications using ADF results must be properly referenced     *
 *   See the User Manuals (or the web site) for recommended citations          *
 *   The terms and conditions of the End User License Agreement apply to       *
 *   the use of ADF, https://www.scm.com/license-terms/                        *
 *                                                                             *
 **********************  x86_64_linux_intel / intelmpi  ************************
 
 
 
  
 DIRAC 2019  RunTime: Oct20-2020 20:21:13  Nodes: 1  Procs: 1

 Temporary files are created in /scratch/kid_0.1220924729 (0x58465342)

1
 HYDROGEN ATOM RELATIVISTIC, Point Nuc, A and c from libtc   
 N J RN H ZN XION ANUC CLIGHT
 5000    1100.00000000197.36710137  1.00000000  0.00000000    1.007825  0.1370360E+03
  PH   PHI     EPS        DEL        DELRVR
  0.30  0.30     2500.00  0.00001000  0.00001000
 IDIRC  NC1  NDEBU NPRIN  IPUN IRCOR IWCOR
   1   300     0     0     0     0     0
   XALPHA      XLATTER      RNUC
  0.70000000  0.00000000  0.00000000 Point Charge
   XN   XL   XJ      XE          XZ      XDELL
  1.0  0.0  0.5      -1.000       1.000     0.00000
 ICORP=  0  NPCL=  0  DEMP=0.00  PEPS=0.000000
 R(1)=  0.1000000E-08 D=  0.1005080E+01 RNUC=  0.0000000E+00
 converged at cycle   32  DENSITY AVERAGING    0.2400
  MAXIMUM ERROR IN R.V(R) IS   0.79874357E-05
 Q,EY,EV,EZ,ESUM,ETOT,RHO  0.100000E+01 -0.266614E+00 -0.619969E+00 -0.910779E+00 -0.203940E+00 -0.415998E+00  0.337036E-17


 DIRAC CALCULATION
1                    HYDROGEN ATOM RELATIVISTIC, Point Nuc, A and c from libtc


 EXCHANGE COEFFICIENT=  0.7000000           TAIL CORRECTION=  0.           NUCLEAR RADIUS=  0.000E+00
0                       ORBITAL    N    L    J     ELECTRONS     EIGENVALUE                DELTA OF EIGENV.

                          1S1/2  1.0  0.0  0.5     1.000       -0.2039397E+00                 0.2720093E-06


                                        NUCLEAR CHARGE=    1.000000
                            INTEGRAL OF CHARGE DENSITY=    1.000000
                           SUM OF THE ORBITAL ENERGIES=     -0.2039
                                          TOTAL ENERGY=     -0.4160
                                        KINETIC ENERGY=      0.4160
                             NUCLEAR ATTRACTION ENERGY=     -0.9108
                             ELECTRON REPULSION ENERGY=      0.2787
                                       EXCHANGE ENERGY=     -0.2000

 *******************************************************************************

                             D I R A C   E X I T
 NORMAL TERMINATION



 =================
 Timing Statistics
 =================
  
 Total Used :                     CPU=        0.06      System=        0.00     Elapsed=        0.07

 Calls  Section                     ( Mean, Percentage )
 ---------------------------------------------------------------------------------------------------
     2  ><      ................      0.00    0.00             0.00    0.00             0.00    0.01
     1  EXIT PROCEDURE .........      0.06  100.00             0.00  100.00             0.07   99.99


 Currently Open Files (EXIT00)
 ====================

 Unit    Access Format  Status   Type       Ident (file)
 -------------------------------------------------------
   3      SEQ    FORM   TRANSP  NORMAL      LOGFILE
                                          ( logfile )
 
Create H   file=TZP-H
XC
  GGA PBE
End
relativistic ZORA
Corepotentials t12.rel
End

 *******************************************************************************
 *                                                                             *
 *  -------------------------------------                                      *
 *   Amsterdam Density Functional  (ADF)         2019                          *
 *  -------------------------------------                                      *
 *                                               r79301 2019-11-09             *
 *                                                                             *
 *                                                                             *
 *                              =================                              *
 *                              |               |                              *
 *                              |     A D F     |                              *
 *                              |               |                              *
 *                              =================                              *
 *                                                                             *
 *                                                                             *
 *   Online information and documentation:  https://www.scm.com/support/       *
 *   E-mail:  support@scm.com   info@scm.com                                   *
 *                                                                             *
 *   Scientific publications using ADF results must be properly referenced     *
 *   See the User Manuals (or the web site) for recommended citations          *
 *   The terms and conditions of the End User License Agreement apply to       *
 *   the use of ADF, https://www.scm.com/license-terms/                        *
 *                                                                             *
 **********************  x86_64_linux_intel / intelmpi  ************************
 
 
 
  
 ADF 2019  RunTime: Oct20-2020 20:21:13  Nodes: 1  Procs: 1

 Temporary files are created in /scratch/kid_0.1915659247 (0x58465342)

 Hydrogen (TZP)



 ===========================
 A T T A C H E D   F I L E S
 ===========================
  
 CREATE - Data File:    TZP-H
                        Hydrogen (TZP)
 Core Potentials:
         file : t12.rel



 ===============================
 M O D E L   P A R A M E T E R S
 ===============================
  
 DENSITY FUNCTIONAL POTENTIAL (scf)
    LDA:                               PW92                                    == Not Default ==
    Gradient Corrections:              PBEc PBEx                               == Not Default ==

 SPIN  (restricted / unrestr.)
    Molecule:                          Restricted                               

 OTHER ASPECTS
    Relativistic Corrections:          scalar (ZORA,MAPA)                      == Not Default ==

    Nuclear Charge Density Model:      Point Charge Nuclei                      
    Core Treatment:                    Frozen Orbital(s)                        

    Hyperfine or Zeeman Interaction:   ---                                      



 =====================================
 S Y M M E T R Y ,   E L E C T R O N S
 =====================================
  
 Symmetry: ATOM

 Irreducible Representations, including subspecies
 -------------------------------------------------
 S
 P:x  P:y  P:z
 D:z2  D:x2-y2  D:xy  D:xz  D:yz
 F:z3  F:z  F:xyz  F:z2x  F:z2y  F:x  F:y


 Configuration of Valence Electrons
 ==================================

          Occupation Numbers
          -------------------------------------------------
 S        1
 P        0
 D        0
 F        0
          -------------------------------------------------

 Total:   1

 Net Charge: 0 (Nuclei minus Electrons)

 Preset values for MO occupations will be applied through SCF cycle no. 1000000
 Thereafter, the program will assign electrons to MOs that are spatially
 similar to the occupied MOs in a "reference" cycle ("KeepOrbitals").
 The reference cycle is always the PREVIOUS cycle: it will evolve with
 the SCF procedure.



 ================================
 (Slater-type)  F U N C T I O N S  ***  (Basis and Fit)  ***
 ================================
  

 Atom Type    1  (H)
 ==============

 Valence Basis Sets:   4
 -----------------------
   1 S    0.690000
   1 S    0.920000
   1 S    1.580000
   2 P    1.250000


 BAS: List of all Elementary Cartesian Basis Functions
 =====================================================

 The numbering in the list below (to the right of the function characteristics) is referred
 to in print-outs of MO eigenvectors and Mulliken populations in the BAS representation
 (as contrasted to the SFO representation).

 Notes:
 1. The functions are characterized by a polynomial prefactor (powers of x,y,z and r) and
    an exponential decay factor alpha.
 2. Since the basis sets are specific for an atom TYPE, the individual functions occur on
    all atoms of that type.
 3. The word 'Core' in the left margin signals that it is a Core Function (CF) : not a
    degree of freedom in the valence set, but only used to ensure orthogonalization of
    the other valence basis functions on the frozen Core Orbitals.


 (power of) X  Y  Z  R     Alpha  on Atom
            ==========     =====     ==========

 H                                    1
                                  ---------------------------------------------------------------------------
            0  0  0  0     0.690      1
            0  0  0  0     0.920      2
            0  0  0  0     1.580      3
            1  0  0  0     1.250      4
            0  1  0  0     1.250      5
            0  0  1  0     1.250      6

 Total number of charge fitting functions (nprimf)        50
 Total number of Cartesian basis functions (naos)          6
 Total number of Cartesian core functions  (ncos)          0



 BAS: List of all Elementary Cartesian Basis Functions
 =====================================================

 The numbering in the list below (to the right of the function characteristics) is referred
 to in print-outs of MO eigenvectors and Mulliken populations in the BAS representation
 (as contrasted to the SFO representation).

 Notes:
 1. The functions are characterized by a polynomial prefactor (powers of x,y,z and r) and
    an exponential decay factor alpha.
 2. Since the basis sets are specific for an atom TYPE, the individual functions occur on
    all atoms of that type.
 3. The word 'Core' in the left margin signals that it is a Core Function (CF) : not a
    degree of freedom in the valence set, but only used to ensure orthogonalization of
    the other valence basis functions on the frozen Core Orbitals.


 (power of) X  Y  Z  R     Alpha  on Atom
            ==========     =====     ==========

 H                                    1
                                  ---------------------------------------------------------------------------
            0  0  0  0     0.690      1
            0  0  0  0     0.920      2
            0  0  0  0     1.580      3
            1  0  0  0     1.250      4
            0  1  0  0     1.250      5
            0  0  1  0     1.250      6
1
 ***************************************************************************************************



                                              ***********************
                                              *  T E C H N I C A L  *
                                              ***********************
  



 =============================================================
 P A R A L L E L I Z A T I O N  and  V E C T O R I Z A T I O N
 =============================================================
  
 Nr of parallel processes:                                1
 Maximum vector length in NumInt loops:                 128



 =====================
 S C F   U P D A T E S
 =====================
  
 Max. nr. of cycles:                               300
 Convergence criterion:                              0.0000000100
   secondary criterion:                              0.0000000100

 Mix parameter (when DIIS does not apply):           0.2000000000
 Special mix parameter for the first cycle:          1.0000000000
 Mixed ADIIS+SDIIS will be used                  
    Max number of expansion vectors:                10
    Pure ADIIS when Max([F,P]) is above              0.1000000000
    Pure SDIIS when Max([F,P]) is below              0.0010000000
 Automatic ElectronSmearing (in case of problematic SCF convergence) disabled



 =================
 P R E C I S I O N  ***  (General: NumInt, NeglectFunctionTails, ...)  ***
 =================
  

 NumInt:           Target precision:                12.0000000000
 -------           Initial precision:               10.0000000000
                   Min. precision (optimization):   10.0000000000

 Neglect Functions:          Basis functions:        0.1000000000E-13
 ------------------          Fit functions:          0.1000000000E-13



 ===========================
 L I N E A R   S C A L I N G
 ===========================
  

 Cut-off radii density fit:                        0.1000000000E-97
 Overlap cut-off criterion AO matrix elements:     0.1000000000E-97
 Cut-offs for Coulomb potential and fitted density:0.1000000000E-97
 Cut-off criterion for Coulomb multipole terms:    0.1000000000E-97
 Progressive Convergence parameter:                 0.000000000    
1
 ***************************************************************************************************



                                            ***************************
                                            *  C O M P U T A T I O N  *
                                            ***************************
  

 Number of elements of the density matrix on this node (used, total):        21        21



 ===========================================
 Numerical Integration : Fuzzy Cells (Becke)
 ===========================================
  
 Becke grid quality: VERYGOOD       
  
 Lebedev angular grid order:             min:  13 max:  41
 Nr. of radial points:                   min:  64 max:  64

 Total nr. of points:         64
 Nr. of blocks:                1
 Block length:                64
 Nr. of dummy points:          0


 Test of Precision of the Numerical Integration Grid
 ===================================================

 Integral of the Total Core Density:                   0.00000000000000



 ========================
 Density Fitting (zlmFit)
 ========================
  
 ZlmFit Fit Quality: VERYGOOD       
  
 Max L-expansion:                        min:   0 max:   0
 Nr. of radial interpolation points:     min: 120 max: 120



 =====
 S C F  ***  ScaSCF  ***
 =====
  

 CYCLE    1
 SCF Error: norm([F,P])=      0.000000000000, max([F,P])=      0.000000000000
 orbitals (Q,E):
 ---------------
 S :1...3            ( 1.00    -0.5000)  ( 0.00    -0.0900)  ( 0.00     1.2936)
 P :1...1            ( 0.00     0.1562)

 CYCLE    2
 SCF Error: norm([F,P])=      0.031537872292, max([F,P])=      0.030110494752
 orbitals (Q,E):
 ---------------
 S :1...2            ( 1.00    -0.2218)  ( 0.00     0.1019)
 P :1...1            ( 0.00     0.4189)

 CYCLE    3
  SDIIS (wt  0.000):  0.1996  0.8004
 A-DIIS (wt  1.000):  0.0000  1.0000
  DIIS coefficients:  0.0000  1.0000
 SCF Error: norm([F,P])=      0.008617989401, max([F,P])=      0.008343029399
 orbitals (Q,E):
 ---------------
 S :1...2            ( 1.00    -0.2422)  ( 0.00     0.0889)
 P :1...1            ( 0.00     0.4024)

 CYCLE    4
  SDIIS (wt  0.993):  0.1666  0.8334
 A-DIIS (wt  0.007):  0.0000  1.0000
  DIIS coefficients:  0.1654  0.8346
 SCF Error: norm([F,P])=      0.001732350026, max([F,P])=      0.001718616814
 orbitals (Q,E):
 ---------------
 S :1...2            ( 1.00    -0.2385)  ( 0.00     0.0908)
 P :1...1            ( 0.00     0.4054)

 CYCLE    5
  SDIIS (wt  1.000):  0.0236  0.9764
  DIIS coefficients:  0.0236  0.9764
 SCF Error: norm([F,P])=      0.000043673449, max([F,P])=      0.000039769875
 orbitals (Q,E):
 ---------------
 S :1...2            ( 1.00    -0.2386)  ( 0.00     0.0908)
 P :1...1            ( 0.00     0.4054)

 CYCLE    6
  SDIIS (wt  1.000): -0.0577  1.0577
  DIIS coefficients: -0.0577  1.0577
 SCF Error: norm([F,P])=      0.000002383805, max([F,P])=      0.000002158128
 orbitals (Q,E):
 ---------------
 S :1...2            ( 1.00    -0.2386)  ( 0.00     0.0908)
 P :1...1            ( 0.00     0.4054)

 CYCLE    7
  SDIIS (wt  1.000): -0.0032  1.0032
  DIIS coefficients: -0.0032  1.0032
 SCF Error: norm([F,P])=      0.000000007721, max([F,P])=      0.000000007228
 orbitals (Q,E):
 ---------------
 S :1...2            ( 1.00    -0.2386)  ( 0.00     0.0908)
 P :1...1            ( 0.00     0.4054)

 SCF CONVERGED

 CYCLE    8
1
 ***************************************************************************************************



                                                *******************
                                                *  R E S U L T S  *
                                                *******************
  
 *** Using FIT density in Focky
  SDIIS (wt  1.000):  0.0192  0.9808
  DIIS coefficients:  0.0192  0.9808
 SCF Error: norm([F,P])=      0.000000000151, max([F,P])=      0.000000000141

 Scaled ZORA Orbital Energies, per Irrep and Spin:
 =================================================
                        Occup              E (au)              E (eV)       Diff (eV) with prev. cycle
                        -----      --------------------        ------       --------------------------
 S
               1        1.000     -0.23861775226993E+00        -6.493               7.43E-09
               2        0.000      0.90791701709251E-01         2.471
               3        0.000      0.15217530108908E+01        41.409
 P
               1        0.000      0.40537978060393E+00        11.031


 Partially Occupied:
               1 S                -0.23861775226993E+00
  
 LUMO :        2 S                 0.90791701709251E-01
  


 Orbital Energies, all Irreps
 ========================================

 Irrep        no.  (spin)   Occup              E (au)                E (eV)
 ---------------------------------------------------------------------------
 S             1             1.00       -0.23861775226993E+00        -6.4931
 S             2             0.00        0.90791701709251E-01         2.4706
 P             1             0.00        0.40537978060393E+00        11.0309
 S             3             0.00        0.15217530108908E+01        41.4090


 All Electron Calculation, thus no Orbital Energies of the Core Orbitals are calculated



 =======================================
 M U L L I K E N   P O P U L A T I O N S
 =======================================
  
 The survey below gives for each atom:
 a) the total charge (Z minus electrons)
 b) the net spin polarization (nr of electrons spin-A minus spin-B)
 c) for each spin the atomic electron valence density (integrated) per L-value.

 Atom              Charge    Spin density          S         P         D         F
 ----              ------    ------------       ------    ------    ------    ------
 1 H              -0.0000                       1.0000    0.0000    0.0000    0.0000

 Populations of individual BAS functions
 ----------------------------------------
 1 H            0.2104  0.6788  0.1107  0.0000  0.0000  0.0000

 Gross Charges per Atom (Z minus electrons)
 ==========================================
            -0.0000
 Net Total: -0.00000000



 =======================================================================
 Electrostatic potential at the Nuclei due to electrons and other nuclei
 =======================================================================
  
         Atom                  Potential
         ----                  ---------
     1)   H                   0.94468022
 
 
 ========================
 No memory problems found
 ========================
 
 Maximum number of active allocate calls:         306
 
 *******************************************************************************

                             A D F   E X I T
 NORMAL TERMINATION



 =================
 Timing Statistics
 =================
  
 Total Used :                     CPU=        0.34      System=        0.01     Elapsed=        0.48

 Calls  Section                     ( Mean, Percentage )
 ---------------------------------------------------------------------------------------------------
     3  ><      ................      0.00    1.18             0.00    0.00             0.00    0.82
     1  INIT    ................      0.07   20.00             0.00   33.33             0.08   16.15
     1  GEOMET  ................      0.02    4.71             0.00   33.33             0.12   25.59
     1  INPUTA  ................      0.00    0.00             0.00    0.00             0.00    0.70
     1  MAINSY  ................      0.01    3.53             0.00    0.00             0.01    2.67
     1  SYMFIT  ................      0.00    0.00             0.00    0.00             0.00    0.34
     1  CORORT  ................      0.00    1.18             0.00    0.00             0.00    0.25
     1  SYMORB  ................      0.00    0.00             0.00    0.00             0.00    0.15
     1  CLSMAT  ................      0.00    1.18             0.00    0.00             0.01    1.07
     1  ORTHON  ................      0.00    1.18             0.00    0.00             0.00    0.98
     1  GENPT   ................      0.01    3.53             0.00    0.00             0.01    2.57
     1  PTBAS   ................      0.00    1.18             0.00    0.00             0.01    1.07
     8  FOCKY   ................      0.02   45.88             0.00    0.00             0.02   35.21
     8  FOCKTR  ................      0.00    1.18             0.00    0.00             0.00    0.98
     8  SDIIS   ................      0.00    8.24             0.00    0.00             0.00    4.46
     1  COREPS  ................      0.01    2.35             0.00   33.34             0.01    2.90
     1  POPAN   ................      0.00    1.18             0.00    0.00             0.00    1.03
     1  DEBYE   ................      0.00    0.00             0.00    0.00             0.00    0.39
     1  EXIT PROCEDURE .........      0.01    3.53             0.00    0.00             0.01    2.67


 Currently Open Files (EXIT00)
 ====================

 Unit    Access Format  Status   Type       Ident (file)
 -------------------------------------------------------
   3      SEQ    FORM   TRANSP  NORMAL      LOGFILE
                                          ( logfile )

 ***************************************************************************************************
 (LOGFILE)
 <Oct20-2020> <20:21:13>  DIRAC 2019  RunTime: Oct20-2020 20:21:13  Nodes: 1  Procs: 1
 <Oct20-2020> <20:21:13>  NORMAL TERMINATION
 <Oct20-2020> <20:21:13>  END
 <Oct20-2020> <20:21:13>  ADF 2019  RunTime: Oct20-2020 20:21:13  Nodes: 1  Procs: 1
 <Oct20-2020> <20:21:13>  Hydrogen (TZP)
 <Oct20-2020> <20:21:13>  RunType   : CREATE
 <Oct20-2020> <20:21:13>  Net Charge: 0 (Nuclei minus Electrons)
 <Oct20-2020> <20:21:13>  Symmetry  : ATOM
  Coordinates
    Atom         X           Y           Z   (Angstrom)
    1.H         0.000000    0.000000    0.000000
 <Oct20-2020> <20:21:13>  >>>> CORORT
 <Oct20-2020> <20:21:13>  >>>> CLSMAT
 <Oct20-2020> <20:21:13>  >>>> ORTHON
 <Oct20-2020> <20:21:13>  >>>> GENPT
 <Oct20-2020> <20:21:13>  Block Length=  64
 <Oct20-2020> <20:21:13>  >>>> PTBAS
 <Oct20-2020> <20:21:13>  >>>> CYCLE
 <Oct20-2020> <20:21:13>              |Error|         MaxErr       Wt(A-DIIS)
 <Oct20-2020> <20:21:13>      1      0.00000000      0.00000000
 <Oct20-2020> <20:21:13>      2      0.03153787      0.03011049
 <Oct20-2020> <20:21:13>      3      0.00861799      0.00834303    100.0
 <Oct20-2020> <20:21:13>      4      0.00173235      0.00171862      0.7
 <Oct20-2020> <20:21:13>      5      0.00004367      0.00003977      0.0
 <Oct20-2020> <20:21:13>      6      0.00000238      0.00000216      0.0
 <Oct20-2020> <20:21:13>      7      0.00000001      0.00000001      0.0
 <Oct20-2020> <20:21:13>  SCF converged
 <Oct20-2020> <20:21:13>      8      0.00000000      0.00000000      0.0
 <Oct20-2020> <20:21:13>  >>>> POPAN
 <Oct20-2020> <20:21:13>  >>>> DEBYE
 <Oct20-2020> <20:21:13>  NORMAL TERMINATION
 <Oct20-2020> <20:21:13>  END

 *******************************************************************************
 *                                                                             *
 *  -------------------------------------                                      *
 *   Amsterdam Density Functional  (ADF)         2019                          *
 *  -------------------------------------                                      *
 *                                               r79301 2019-11-09             *
 *                                                                             *
 *                                                                             *
 *                            =====================                            *
 *                            |                   |                            *
 *                            |     D I R A C     |                            *
 *                            |                   |                            *
 *                            =====================                            *
 *                                                                             *
 *                                                                             *
 *   Online information and documentation:  https://www.scm.com/support/       *
 *   E-mail:  support@scm.com   info@scm.com                                   *
 *                                                                             *
 *   Scientific publications using ADF results must be properly referenced     *
 *   See the User Manuals (or the web site) for recommended citations          *
 *   The terms and conditions of the End User License Agreement apply to       *
 *   the use of ADF, https://www.scm.com/license-terms/                        *
 *                                                                             *
 **********************  x86_64_linux_intel / intelmpi  ************************
 
 
 
  
 DIRAC 2019  RunTime: Oct20-2020 20:21:13  Nodes: 1  Procs: 1

 Temporary files are created in /scratch/kid_0.984249645 (0x58465342)

1
 OXYGEN ATOM 1s CORE RELATIVISTIC, Point Nuc, A and c from li
 N J RN H ZN XION ANUC CLIGHT
 5000    4100.00000000197.36710137  8.00000000  0.00000000   15.994914  0.1370360E+03
  PH   PHI     EPS        DEL        DELRVR
  0.30  0.30     2500.00  0.00001000  0.00001000
 IDIRC  NC1  NDEBU NPRIN  IPUN IRCOR IWCOR
   1   300     0     0     0     0     1
   XALPHA      XLATTER      RNUC
  0.70000000  0.00000000  0.00000000 Point Charge
   XN   XL   XJ      XE          XZ      XDELL
  1.0  0.0  0.5      -5.000       2.000     0.00000
  2.0  0.0  0.5      -1.000       2.000     0.00000
  2.0  1.0  0.5      -1.000       2.000     0.00000
  2.0  1.0  1.5      -1.000       2.000     0.00000
 ICORP=  0  NPCL=  0  DEMP=0.00  PEPS=0.000000
 R(1)=  0.1000000E-08 D=  0.1005080E+01 RNUC=  0.0000000E+00
 converged at cycle   28  DENSITY AVERAGING    0.2400
  MAXIMUM ERROR IN R.V(R) IS   0.81125670E-05
 Q,EY,EV,EZ,ESUM,ETOT,RHO  0.800000E+01 -0.101247E+02 -0.114961E+03 -0.177573E+03 -0.405053E+02 -0.743427E+02  0.414766E-14


 DIRAC CALCULATION
1                    OXYGEN ATOM 1s CORE RELATIVISTIC, Point Nuc, A and c from libtc


 EXCHANGE COEFFICIENT=  0.7000000           TAIL CORRECTION=  0.           NUCLEAR RADIUS=  0.000E+00
0                       ORBITAL    N    L    J     ELECTRONS     EIGENVALUE                DELTA OF EIGENV.

                          1S1/2  1.0  0.0  0.5     2.000       -0.1880014E+02                 0.7264358E-06
                          2S1/2  2.0  0.0  0.5     2.000       -0.8412236E+00                 0.5932752E-05
                          2P1/2  2.0  1.0  0.5     2.000       -0.3063203E+00                 0.5998471E-05
                          2P3/2  2.0  1.0  1.5     2.000       -0.3049609E+00                 0.5986971E-05


                                        NUCLEAR CHARGE=    8.000000
                            INTEGRAL OF CHARGE DENSITY=    8.000000
                           SUM OF THE ORBITAL ENERGIES=    -40.5053
                                          TOTAL ENERGY=    -74.3427
                                        KINETIC ENERGY=     74.4552
                             NUCLEAR ATTRACTION ENERGY=   -177.5730
                             ELECTRON REPULSION ENERGY=     36.3686
                                       EXCHANGE ENERGY=     -7.5935

 *******************************************************************************

                             D I R A C   E X I T
 NORMAL TERMINATION



 =================
 Timing Statistics
 =================
  
 Total Used :                     CPU=        0.10      System=        0.01     Elapsed=        0.11

 Calls  Section                     ( Mean, Percentage )
 ---------------------------------------------------------------------------------------------------
     2  ><      ................      0.00    0.00             0.00    0.00             0.00    0.00
     1  EXIT PROCEDURE .........      0.10  100.00             0.01  100.00             0.11  100.00


 Currently Open Files (EXIT00)
 ====================

 Unit    Access Format  Status   Type       Ident (file)
 -------------------------------------------------------
   3      SEQ    FORM   TRANSP  NORMAL      LOGFILE
                                          ( logfile )
 
Create O   file=TZP-O.1s
XC
  GGA PBE
End
relativistic ZORA
Corepotentials t12.rel
End

 *******************************************************************************
 *                                                                             *
 *  -------------------------------------                                      *
 *   Amsterdam Density Functional  (ADF)         2019                          *
 *  -------------------------------------                                      *
 *                                               r79301 2019-11-09             *
 *                                                                             *
 *                                                                             *
 *                              =================                              *
 *                              |               |                              *
 *                              |     A D F     |                              *
 *                              |               |                              *
 *                              =================                              *
 *                                                                             *
 *                                                                             *
 *   Online information and documentation:  https://www.scm.com/support/       *
 *   E-mail:  support@scm.com   info@scm.com                                   *
 *                                                                             *
 *   Scientific publications using ADF results must be properly referenced     *
 *   See the User Manuals (or the web site) for recommended citations          *
 *   The terms and conditions of the End User License Agreement apply to       *
 *   the use of ADF, https://www.scm.com/license-terms/                        *
 *                                                                             *
 **********************  x86_64_linux_intel / intelmpi  ************************
 
 
 
  
 ADF 2019  RunTime: Oct20-2020 20:21:14  Nodes: 1  Procs: 1

 Temporary files are created in /scratch/kid_0.2008977467 (0x58465342)

 Oxygen (TZP, 1s frozen)



 ===========================
 A T T A C H E D   F I L E S
 ===========================
  
 CREATE - Data File:    TZP-O.1s
                        Oxygen (TZP, 1s frozen)
 Core Potentials:
         file : t12.rel



 ===============================
 M O D E L   P A R A M E T E R S
 ===============================
  
 DENSITY FUNCTIONAL POTENTIAL (scf)
    LDA:                               PW92                                    == Not Default ==
    Gradient Corrections:              PBEc PBEx                               == Not Default ==

 SPIN  (restricted / unrestr.)
    Molecule:                          Restricted                               

 OTHER ASPECTS
    Relativistic Corrections:          scalar (ZORA,MAPA)                      == Not Default ==

    Nuclear Charge Density Model:      Point Charge Nuclei                      
    Core Treatment:                    Frozen Orbital(s)                        

    Hyperfine or Zeeman Interaction:   ---                                      



 =====================================
 S Y M M E T R Y ,   E L E C T R O N S
 =====================================
  
 Symmetry: ATOM

 Irreducible Representations, including subspecies
 -------------------------------------------------
 S
 P:x  P:y  P:z
 D:z2  D:x2-y2  D:xy  D:xz  D:yz
 F:z3  F:z  F:xyz  F:z2x  F:z2y  F:x  F:y


 Configuration of Valence Electrons
 ==================================

          Occupation Numbers
          -------------------------------------------------
 S        2
 P        4
 D        0
 F        0
          -------------------------------------------------

 Total:   6

 Net Charge: 0 (Nuclei minus Electrons)

 Preset values for MO occupations will be applied through SCF cycle no. 1000000
 Thereafter, the program will assign electrons to MOs that are spatially
 similar to the occupied MOs in a "reference" cycle ("KeepOrbitals").
 The reference cycle is always the PREVIOUS cycle: it will evolve with
 the SCF procedure.



 ================================
 (Slater-type)  F U N C T I O N S  ***  (Basis and Fit)  ***
 ================================
  

 Atom Type    1  (O)
 ==============

 Valence Basis Sets:   8
 -----------------------
   1 S    7.360000
   2 S    1.720000
   2 S    2.880000
   2 S    7.580000
   2 P    1.120000
   2 P    2.080000
   2 P    4.080000
   3 D    2.000000

 Frozen Core Shells
 ------------------
    S:  1


 BAS: List of all Elementary Cartesian Basis Functions
 =====================================================

 The numbering in the list below (to the right of the function characteristics) is referred
 to in print-outs of MO eigenvectors and Mulliken populations in the BAS representation
 (as contrasted to the SFO representation).

 Notes:
 1. The functions are characterized by a polynomial prefactor (powers of x,y,z and r) and
    an exponential decay factor alpha.
 2. Since the basis sets are specific for an atom TYPE, the individual functions occur on
    all atoms of that type.
 3. The word 'Core' in the left margin signals that it is a Core Function (CF) : not a
    degree of freedom in the valence set, but only used to ensure orthogonalization of
    the other valence basis functions on the frozen Core Orbitals.


 (power of) X  Y  Z  R     Alpha  on Atom
            ==========     =====     ==========

 O                                    1
                                  ---------------------------------------------------------------------------
    Core    0  0  0  0     7.360      1
            0  0  0  1     1.720      2
            0  0  0  1     2.880      3
            0  0  0  1     7.580      4
            1  0  0  0     1.120      5
            0  1  0  0     1.120      6
            0  0  1  0     1.120      7
            1  0  0  0     2.080      8
            0  1  0  0     2.080      9
            0  0  1  0     2.080     10
            1  0  0  0     4.080     11
            0  1  0  0     4.080     12
            0  0  1  0     4.080     13
            2  0  0  0     2.000     14
            1  1  0  0     2.000     15
            1  0  1  0     2.000     16
            0  2  0  0     2.000     17
            0  1  1  0     2.000     18
            0  0  2  0     2.000     19

 Total number of charge fitting functions (nprimf)        82
 Total number of Cartesian basis functions (naos)         19
 Total number of Cartesian core functions  (ncos)          1



 BAS: List of all Elementary Cartesian Basis Functions
 =====================================================

 The numbering in the list below (to the right of the function characteristics) is referred
 to in print-outs of MO eigenvectors and Mulliken populations in the BAS representation
 (as contrasted to the SFO representation).

 Notes:
 1. The functions are characterized by a polynomial prefactor (powers of x,y,z and r) and
    an exponential decay factor alpha.
 2. Since the basis sets are specific for an atom TYPE, the individual functions occur on
    all atoms of that type.
 3. The word 'Core' in the left margin signals that it is a Core Function (CF) : not a
    degree of freedom in the valence set, but only used to ensure orthogonalization of
    the other valence basis functions on the frozen Core Orbitals.


 (power of) X  Y  Z  R     Alpha  on Atom
            ==========     =====     ==========

 O                                    1
                                  ---------------------------------------------------------------------------
    Core    0  0  0  0     7.360      1
            0  0  0  1     1.720      2
            0  0  0  1     2.880      3
            0  0  0  1     7.580      4
            1  0  0  0     1.120      5
            0  1  0  0     1.120      6
            0  0  1  0     1.120      7
            1  0  0  0     2.080      8
            0  1  0  0     2.080      9
            0  0  1  0     2.080     10
            1  0  0  0     4.080     11
            0  1  0  0     4.080     12
            0  0  1  0     4.080     13
            2  0  0  0     2.000     14
            1  1  0  0     2.000     15
            1  0  1  0     2.000     16
            0  2  0  0     2.000     17
            0  1  1  0     2.000     18
            0  0  2  0     2.000     19
1
 ***************************************************************************************************



                                              ***********************
                                              *  T E C H N I C A L  *
                                              ***********************
  



 =============================================================
 P A R A L L E L I Z A T I O N  and  V E C T O R I Z A T I O N
 =============================================================
  
 Nr of parallel processes:                                1
 Maximum vector length in NumInt loops:                 128



 =====================
 S C F   U P D A T E S
 =====================
  
 Max. nr. of cycles:                               300
 Convergence criterion:                              0.0000000100
   secondary criterion:                              0.0000000100

 Mix parameter (when DIIS does not apply):           0.2000000000
 Special mix parameter for the first cycle:          1.0000000000
 Mixed ADIIS+SDIIS will be used                  
    Max number of expansion vectors:                10
    Pure ADIIS when Max([F,P]) is above              0.1000000000
    Pure SDIIS when Max([F,P]) is below              0.0010000000
 Automatic ElectronSmearing (in case of problematic SCF convergence) disabled



 =================
 P R E C I S I O N  ***  (General: NumInt, NeglectFunctionTails, ...)  ***
 =================
  

 NumInt:           Target precision:                12.0000000000
 -------           Initial precision:               10.0000000000
                   Min. precision (optimization):   10.0000000000

 Neglect Functions:          Basis functions:        0.1000000000E-13
 ------------------          Fit functions:          0.1000000000E-13



 ===========================
 L I N E A R   S C A L I N G
 ===========================
  

 Cut-off radii density fit:                        0.1000000000E-97
 Overlap cut-off criterion AO matrix elements:     0.1000000000E-97
 Cut-offs for Coulomb potential and fitted density:0.1000000000E-97
 Cut-off criterion for Coulomb multipole terms:    0.1000000000E-97
 Progressive Convergence parameter:                 0.000000000    
1
 ***************************************************************************************************



                                            ***************************
                                            *  C O M P U T A T I O N  *
                                            ***************************
  

 Number of elements of the density matrix on this node (used, total):       190       190



 ===========================================
 Numerical Integration : Fuzzy Cells (Becke)
 ===========================================
  
 Becke grid quality: VERYGOOD       
  
 Lebedev angular grid order:             min:  13 max:  41
 Nr. of radial points:                   min:  68 max:  68

 Total nr. of points:         68
 Nr. of blocks:                1
 Block length:                68
 Nr. of dummy points:          0


 Test of Precision of the Numerical Integration Grid
 ===================================================

 Integral of the Total Core Density:                   1.99999999865610
 Relative Error:                                      -6.720E-10



 ========================
 Density Fitting (zlmFit)
 ========================
  
 ZlmFit Fit Quality: VERYGOOD       
  
 Max L-expansion:                        min:   0 max:   0
 Nr. of radial interpolation points:     min: 140 max: 140



 =====
 S C F  ***  ScaSCF  ***
 =====
  

 CYCLE    1
 SCF Error: norm([F,P])=      0.000000000000, max([F,P])=      0.000000000000
 orbitals (Q,E):
 ---------------
 S :1...3            ( 2.00    -5.3654)  ( 0.00    -2.2073)  ( 0.00    23.6692)
 P :1...3            ( 4.00    -5.0045)  ( 0.00    -2.0150)  ( 0.00    -0.3846)
 D :1...1            ( 0.00    -2.0410)

 CYCLE    2
 SCF Error: norm([F,P])=      4.562993374873, max([F,P])=      2.528971113813
 orbitals (Q,E):
 ---------------
 S :1...2            ( 2.00    -0.1548)  ( 0.00     1.6948)
 P :1...2            ( 4.00     0.1773)  ( 0.00     0.9552)
 D :1...1            ( 0.00     1.4649)

 CYCLE    3
  SDIIS (wt  0.000):  0.3378  0.6622
 A-DIIS (wt  1.000):  0.4814  0.5186
  DIIS coefficients:  0.4814  0.5186
 SCF Error: norm([F,P])=      2.723155250500, max([F,P])=      1.798667049295
 orbitals (Q,E):
 ---------------
 S :1...2            ( 2.00    -1.1093)  ( 0.00     0.7549)
 P :1...2            ( 4.00    -0.5518)  ( 0.00     0.2590)
 D :1...1            ( 0.00     0.8910)

 CYCLE    4
  SDIIS (wt  0.000):  0.0919  0.9081
 A-DIIS (wt  1.000):  0.0000  1.0000
  DIIS coefficients:  0.0000  1.0000
 SCF Error: norm([F,P])=      0.289027138405, max([F,P])=      0.130648623511
 orbitals (Q,E):
 ---------------
 S :1...2            ( 2.00    -0.7707)  ( 0.00     0.9912)
 P :1...2            ( 4.00    -0.2284)  ( 0.00     0.4046)
 D :1...1            ( 0.00     1.1288)

 CYCLE    5
  SDIIS (wt  0.000):  0.0260  0.6740  0.3001
 A-DIIS (wt  1.000):  0.0000  0.5764  0.4236
  DIIS coefficients:  0.0000  0.5764  0.4236
 SCF Error: norm([F,P])=      0.416615089426, max([F,P])=      0.232643669786
 orbitals (Q,E):
 ---------------
 S :1...2            ( 2.00    -0.8764)  ( 0.00     0.9107)
 P :1...2            ( 4.00    -0.3280)  ( 0.00     0.3557)
 D :1...1            ( 0.00     1.0703)

 CYCLE    6
  SDIIS (wt  0.942):  0.0005  0.0237 -0.0203  0.9960
 A-DIIS (wt  0.058):  0.0000  0.0000  0.0000  1.0000
  DIIS coefficients:  0.0005  0.0224 -0.0191  0.9962
 SCF Error: norm([F,P])=      0.013723272809, max([F,P])=      0.006719036732
 orbitals (Q,E):
 ---------------
 S :1...2            ( 2.00    -0.8830)  ( 0.00     0.9058)
 P :1...2            ( 4.00    -0.3343)  ( 0.00     0.3521)
 D :1...1            ( 0.00     1.0657)

 CYCLE    7
  SDIIS (wt  1.000): -0.0000  0.0016  0.0023  0.0424  0.9537
  DIIS coefficients: -0.0000  0.0016  0.0023  0.0424  0.9537
 SCF Error: norm([F,P])=      0.001103645928, max([F,P])=      0.000634039171
 orbitals (Q,E):
 ---------------
 S :1...2            ( 2.00    -0.8827)  ( 0.00     0.9060)
 P :1...2            ( 4.00    -0.3340)  ( 0.00     0.3523)
 D :1...1            ( 0.00     1.0659)

 CYCLE    8
  SDIIS (wt  1.000): -0.0000 -0.0001  0.0000 -0.0032  0.0268  0.9765
  DIIS coefficients: -0.0000 -0.0001  0.0000 -0.0032  0.0268  0.9765
 SCF Error: norm([F,P])=      0.000035919805, max([F,P])=      0.000020263970
 orbitals (Q,E):
 ---------------
 S :1...2            ( 2.00    -0.8827)  ( 0.00     0.9060)
 P :1...2            ( 4.00    -0.3340)  ( 0.00     0.3522)
 D :1...1            ( 0.00     1.0659)

 CYCLE    9
  SDIIS (wt  1.000): -0.0000  0.0008  0.0188  0.9804
  DIIS coefficients: -0.0000  0.0008  0.0188  0.9804
 SCF Error: norm([F,P])=      0.000000326384, max([F,P])=      0.000000183924
 orbitals (Q,E):
 ---------------
 S :1...2            ( 2.00    -0.8827)  ( 0.00     0.9060)
 P :1...2            ( 4.00    -0.3340)  ( 0.00     0.3522)
 D :1...1            ( 0.00     1.0659)

 CYCLE   10
  SDIIS (wt  1.000):  0.0000  0.0003  0.9996
  DIIS coefficients:  0.0000  0.0003  0.9996
 SCF Error: norm([F,P])=      0.000000000559, max([F,P])=      0.000000000306
 orbitals (Q,E):
 ---------------
 S :1...2            ( 2.00    -0.8827)  ( 0.00     0.9060)
 P :1...2            ( 4.00    -0.3340)  ( 0.00     0.3522)
 D :1...1            ( 0.00     1.0659)

 SCF CONVERGED

 CYCLE   11
1
 ***************************************************************************************************



                                                *******************
                                                *  R E S U L T S  *
                                                *******************
  
 *** Using FIT density in Focky
  SDIIS (wt  1.000): -0.0000  0.0143  0.9857
  DIIS coefficients: -0.0000  0.0143  0.9857
 SCF Error: norm([F,P])=      0.000000000010, max([F,P])=      0.000000000006

 Scaled ZORA Orbital Energies, per Irrep and Spin:
 =================================================
                        Occup              E (au)              E (eV)       Diff (eV) with prev. cycle
                        -----      --------------------        ------       --------------------------
 S
               1        2.000     -0.88272313143209E+00       -24.020              -9.28E-11
               2        0.000      0.90601345014671E+00        24.654
               3        0.000      0.29578810816937E+02       804.880
 P
               1        4.000     -0.33400585272070E+00        -9.089              -8.94E-11
               2        0.000      0.35224911365993E+00         9.585
               3        0.000      0.38342927625315E+01       104.336
 D
               1        0.000      0.10658965783141E+01        29.005


 Partially Occupied:
               1 P                -0.33400585272070E+00
  
 HOMO :        1 S                -0.88272313143209E+00
 LUMO :        2 P                 0.35224911365993E+00
  


 Orbital Energies, all Irreps
 ========================================

 Irrep        no.  (spin)   Occup              E (au)                E (eV)
 ---------------------------------------------------------------------------
 S             1             2.00       -0.88272313143209E+00       -24.0201
 P             1             4.00       -0.33400585272070E+00        -9.0888
 P             2             0.00        0.35224911365993E+00         9.5852
 S             2             0.00        0.90601345014671E+00        24.6539
 D             1             0.00        0.10658965783141E+01        29.0045
 P             3             0.00        0.38342927625315E+01       104.3364
 S             3             0.00        0.29578810816937E+02       804.8804


 Scaled ZORA Orbital Energies of the Core Orbitals:
 ==================================================

 (Note that the atoms are grouped by atomtype, see the labels, and may hence NOT be in input order)

 AtomType  Orbital  Atom                   E (au)                        E (eV)
 --------  -------  ----           --------------------        ----------------
 O           1S        1          -0.18925919758629E+02                -515.000



 =======================================
 M U L L I K E N   P O P U L A T I O N S
 =======================================
  
 The survey below gives for each atom:
 a) the total charge (Z minus electrons)
 b) the net spin polarization (nr of electrons spin-A minus spin-B)
 c) for each spin the atomic electron valence density (integrated) per L-value.

 Atom              Charge    Spin density          S         P         D         F
 ----              ------    ------------       ------    ------    ------    ------
 1 O              -0.0000                       2.0000    4.0000    0.0000    0.0000

 Populations of individual BAS functions
 ----------------------------------------
 1 O            0.0005  0.9226  1.0966 -0.0196  0.3346  0.3346  0.3346  0.7512  0.7512  0.7512
                0.2476  0.2476  0.2476  0.0000  0.0000  0.0000  0.0000  0.0000  0.0000

 Gross Charges per Atom (Z minus electrons)
 ==========================================
            -0.0000
 Net Total: -0.00000000



 =======================================================================
 Electrostatic potential at the Nuclei due to electrons and other nuclei
 =======================================================================
  
         Atom                  Potential
         ----                  ---------
     1)   O                  22.20265662
 
 
 ========================
 No memory problems found
 ========================
 
 Maximum number of active allocate calls:         389
 
 *******************************************************************************

                             A D F   E X I T
 NORMAL TERMINATION



 =================
 Timing Statistics
 =================
  
 Total Used :                     CPU=        0.42      System=        0.03     Elapsed=        0.81

 Calls  Section                     ( Mean, Percentage )
 ---------------------------------------------------------------------------------------------------
     3  ><      ................      0.00    0.00             0.00   12.50             0.00    0.50
     1  INIT    ................      0.06   13.46             0.02   50.00             0.37   45.71
     1  GEOMET  ................      0.02    4.81             0.00    0.00             0.05    6.72
     1  INPUTA  ................      0.00    0.00             0.00    0.00             0.00    0.43
     1  MAINSY  ................      0.01    1.92             0.00   12.50             0.02    2.00
     1  SYMFIT  ................      0.00    0.96             0.00    0.00             0.00    0.20
     1  CORORT  ................      0.00    0.00             0.00    0.00             0.00    0.23
     1  SYMORB  ................      0.00    0.00             0.00    0.00             0.00    0.11
     1  CLSMAT  ................      0.00    0.96             0.00    0.00             0.01    0.75
     1  ORTHON  ................      0.00    0.96             0.00    0.00             0.01    0.64
     1  GENPT   ................      0.02    3.85             0.00    0.00             0.02    1.84
     1  PTBAS   ................      0.00    0.96             0.00    0.00             0.01    0.71
    11  FOCKY   ................      0.02   55.77             0.00   25.00             0.02   30.68
    11  FOCKTR  ................      0.00    2.88             0.00    0.00             0.00    0.93
    11  SDIIS   ................      0.00    5.77             0.00    0.00             0.00    3.84
     1  COREPS  ................      0.02    3.85             0.00    0.00             0.02    2.16
     1  POPAN   ................      0.00    0.96             0.00    0.00             0.01    0.67
     1  DEBYE   ................      0.00    0.00             0.00    0.00             0.00    0.24
     1  EXIT PROCEDURE .........      0.01    2.88             0.00    0.00             0.01    1.66


 Currently Open Files (EXIT00)
 ====================

 Unit    Access Format  Status   Type       Ident (file)
 -------------------------------------------------------
   3      SEQ    FORM   TRANSP  NORMAL      LOGFILE
                                          ( logfile )

 ***************************************************************************************************
 (LOGFILE)
 <Oct20-2020> <20:21:13>  DIRAC 2019  RunTime: Oct20-2020 20:21:13  Nodes: 1  Procs: 1
 <Oct20-2020> <20:21:13>  NORMAL TERMINATION
 <Oct20-2020> <20:21:13>  END
 <Oct20-2020> <20:21:13>  ADF 2019  RunTime: Oct20-2020 20:21:13  Nodes: 1  Procs: 1
 <Oct20-2020> <20:21:13>  Hydrogen (TZP)
 <Oct20-2020> <20:21:13>  RunType   : CREATE
 <Oct20-2020> <20:21:13>  Net Charge: 0 (Nuclei minus Electrons)
 <Oct20-2020> <20:21:13>  Symmetry  : ATOM
  Coordinates
    Atom         X           Y           Z   (Angstrom)
    1.H         0.000000    0.000000    0.000000
 <Oct20-2020> <20:21:13>  >>>> CORORT
 <Oct20-2020> <20:21:13>  >>>> CLSMAT
 <Oct20-2020> <20:21:13>  >>>> ORTHON
 <Oct20-2020> <20:21:13>  >>>> GENPT
 <Oct20-2020> <20:21:13>  Block Length=  64
 <Oct20-2020> <20:21:13>  >>>> PTBAS
 <Oct20-2020> <20:21:13>  >>>> CYCLE
 <Oct20-2020> <20:21:13>              |Error|         MaxErr       Wt(A-DIIS)
 <Oct20-2020> <20:21:13>      1      0.00000000      0.00000000
 <Oct20-2020> <20:21:13>      2      0.03153787      0.03011049
 <Oct20-2020> <20:21:13>      3      0.00861799      0.00834303    100.0
 <Oct20-2020> <20:21:13>      4      0.00173235      0.00171862      0.7
 <Oct20-2020> <20:21:13>      5      0.00004367      0.00003977      0.0
 <Oct20-2020> <20:21:13>      6      0.00000238      0.00000216      0.0
 <Oct20-2020> <20:21:13>      7      0.00000001      0.00000001      0.0
 <Oct20-2020> <20:21:13>  SCF converged
 <Oct20-2020> <20:21:13>      8      0.00000000      0.00000000      0.0
 <Oct20-2020> <20:21:13>  >>>> POPAN
 <Oct20-2020> <20:21:13>  >>>> DEBYE
 <Oct20-2020> <20:21:13>  NORMAL TERMINATION
 <Oct20-2020> <20:21:13>  END
 <Oct20-2020> <20:21:13>  DIRAC 2019  RunTime: Oct20-2020 20:21:13  Nodes: 1  Procs: 1
 <Oct20-2020> <20:21:14>  NORMAL TERMINATION
 <Oct20-2020> <20:21:14>  END
 <Oct20-2020> <20:21:14>  ADF 2019  RunTime: Oct20-2020 20:21:14  Nodes: 1  Procs: 1
 <Oct20-2020> <20:21:14>  Oxygen (TZP, 1s frozen)
 <Oct20-2020> <20:21:14>  RunType   : CREATE
 <Oct20-2020> <20:21:14>  Net Charge: 0 (Nuclei minus Electrons)
 <Oct20-2020> <20:21:14>  Symmetry  : ATOM
  Coordinates
    Atom         X           Y           Z   (Angstrom)
    1.O         0.000000    0.000000    0.000000
 <Oct20-2020> <20:21:14>  >>>> CORORT
 <Oct20-2020> <20:21:14>  >>>> CLSMAT
 <Oct20-2020> <20:21:14>  >>>> ORTHON
 <Oct20-2020> <20:21:14>  >>>> GENPT
 <Oct20-2020> <20:21:14>  Block Length=  68
 <Oct20-2020> <20:21:14>  >>>> PTBAS
 <Oct20-2020> <20:21:14>  >>>> CYCLE
 <Oct20-2020> <20:21:14>              |Error|         MaxErr       Wt(A-DIIS)
 <Oct20-2020> <20:21:14>      1      0.00000000      0.00000000
 <Oct20-2020> <20:21:14>      2      4.56299337      2.52897111
 <Oct20-2020> <20:21:14>      3      2.72315525      1.79866705    100.0
 <Oct20-2020> <20:21:14>      4      0.28902714      0.13064862    100.0
 <Oct20-2020> <20:21:14>      5      0.41661509      0.23264367    100.0
 <Oct20-2020> <20:21:14>      6      0.01372327      0.00671904      5.8
 <Oct20-2020> <20:21:14>      7      0.00110365      0.00063404      0.0
 <Oct20-2020> <20:21:14>      8      0.00003592      0.00002026      0.0
 <Oct20-2020> <20:21:14>      9      0.00000033      0.00000018      0.0
 <Oct20-2020> <20:21:14>     10      0.00000000      0.00000000      0.0
 <Oct20-2020> <20:21:14>  SCF converged
 <Oct20-2020> <20:21:14>     11      0.00000000      0.00000000      0.0
 <Oct20-2020> <20:21:15>  >>>> POPAN
 <Oct20-2020> <20:21:15>  >>>> DEBYE
 <Oct20-2020> <20:21:15>  NORMAL TERMINATION
 <Oct20-2020> <20:21:15>  END

 *******************************************************************************
 *                                                                             *
 *  -------------------------------------                                      *
 *   Amsterdam Density Functional  (ADF)         2019                          *
 *  -------------------------------------                                      *
 *                                               r79301 2019-11-09             *
 *                                                                             *
 *                                                                             *
 *                            =====================                            *
 *                            |                   |                            *
 *                            |     D I R A C     |                            *
 *                            |                   |                            *
 *                            =====================                            *
 *                                                                             *
 *                                                                             *
 *   Online information and documentation:  https://www.scm.com/support/       *
 *   E-mail:  support@scm.com   info@scm.com                                   *
 *                                                                             *
 *   Scientific publications using ADF results must be properly referenced     *
 *   See the User Manuals (or the web site) for recommended citations          *
 *   The terms and conditions of the End User License Agreement apply to       *
 *   the use of ADF, https://www.scm.com/license-terms/                        *
 *                                                                             *
 **********************  x86_64_linux_intel / intelmpi  ************************
 
 
 
  
 DIRAC 2019  RunTime: Oct20-2020 20:21:15  Nodes: 1  Procs: 1

 Temporary files are created in /scratch/kid_0.1983048992 (0x58465342)

1
 TUNGSTEN ATOM 4d CORE RELATIVISTIC, Point Nuc, A and c from 
 N J RN H ZN XION ANUC CLIGHT
 5000   22100.00000000197.36710137 74.00000000  0.00000000  183.950932  0.1370360E+03
  PH   PHI     EPS        DEL        DELRVR
  0.30  0.30     2500.00  0.00001000  0.00001000
 IDIRC  NC1  NDEBU NPRIN  IPUN IRCOR IWCOR
   1   300     0     0     0     0    14
   XALPHA      XLATTER      RNUC
  0.70000000  0.00000000  0.00000000 Point Charge
   XN   XL   XJ      XE          XZ      XDELL
  1.0  0.0  0.5   -2600.000       2.000     0.00000
  2.0  0.0  0.5    -425.000       2.000     0.00000
  2.0  1.0  0.5    -425.000       2.000     0.00000
  2.0  1.0  1.5    -425.000       4.000     0.00000
  3.0  0.0  0.5    -100.000       2.000     0.00000
  3.0  1.0  0.5    -100.000       2.000     0.00000
  3.0  1.0  1.5    -100.000       4.000     0.00000
  3.0  2.0  1.5     -80.000       4.000     0.00000
  3.0  2.0  2.5     -80.000       6.000     0.00000
  4.0  0.0  0.5     -22.000       2.000     0.00000
  4.0  1.0  0.5     -20.000       2.000     0.00000
  4.0  1.0  1.5     -20.000       4.000     0.00000
  4.0  2.0  1.5     -11.000       4.000     0.00000
  4.0  2.0  2.5     -11.000       6.000     0.00000
  4.0  3.0  2.5      -1.000       6.000     0.00000
  4.0  3.0  3.5      -1.000       8.000     0.00000
  5.0  0.0  0.5      -3.000       2.000     0.00000
  5.0  1.0  0.5      -2.200       2.000     0.00000
  5.0  1.0  1.5      -2.200       4.000     0.00000
  5.0  2.0  1.5      -0.500       4.000     0.00000
  5.0  2.0  2.5      -0.500       0.000     0.00000
  6.0  0.0  0.5      -0.200       2.000     0.00000
 ICORP=  0  NPCL=  0  DEMP=0.00  PEPS=0.000000
 R(1)=  0.1000000E-08 D=  0.1005080E+01 RNUC=  0.0000000E+00
 converged at cycle   63  DENSITY AVERAGING    0.1536
  MAXIMUM ERROR IN R.V(R) IS   0.78838062E-05
 Q,EY,EV,EZ,ESUM,ETOT,RHO  0.740000E+02 -0.431420E+03 -0.281568E+05 -0.403919E+05 -0.993885E+04 -0.161643E+05  0.726391E-09


 DIRAC CALCULATION
1                    TUNGSTEN ATOM 4d CORE RELATIVISTIC, Point Nuc, A and c from libtc


 EXCHANGE COEFFICIENT=  0.7000000           TAIL CORRECTION=  0.           NUCLEAR RADIUS=  0.000E+00
0                       ORBITAL    N    L    J     ELECTRONS     EIGENVALUE                DELTA OF EIGENV.

                          1S1/2  1.0  0.0  0.5     2.000       -0.2549514E+04                 0.5980248E-04
                          2S1/2  2.0  0.0  0.5     2.000       -0.4399118E+03                 0.5052420E-04
                          2P1/2  2.0  1.0  0.5     2.000       -0.4208427E+03                 0.5265062E-04
                          2P3/2  2.0  1.0  1.5     4.000       -0.3711192E+03                 0.5139441E-04
                          3S1/2  3.0  0.0  0.5     2.000       -0.1012881E+03                 0.3437035E-04
                          3P1/2  3.0  1.0  0.5     2.000       -0.9277148E+02                 0.3553128E-04
                          3P3/2  3.0  1.0  1.5     4.000       -0.8201733E+02                 0.3404634E-04
                          3D3/2  3.0  2.0  1.5     4.000       -0.6762803E+02                 0.3680712E-04
                          3D5/2  3.0  2.0  2.5     6.000       -0.6528623E+02                 0.3629511E-04
                          4S1/2  4.0  0.0  0.5     2.000       -0.2084139E+02                 0.1939427E-04
                          4P1/2  4.0  1.0  0.5     2.000       -0.1730737E+02                 0.1933978E-04
                          4P3/2  4.0  1.0  1.5     4.000       -0.1480597E+02                 0.1810922E-04
                          4D3/2  4.0  2.0  1.5     4.000       -0.8989319E+01                 0.1779394E-04
                          4D5/2  4.0  2.0  2.5     6.000       -0.8528007E+01                 0.1741170E-04
                          4F5/2  4.0  3.0  2.5     6.000       -0.1237480E+01                 0.1544089E-04
                          4F7/2  4.0  3.0  3.5     8.000       -0.1154634E+01                 0.1522033E-04
                          5S1/2  5.0  0.0  0.5     2.000       -0.2863514E+01                 0.7979521E-05
                          5P1/2  5.0  1.0  0.5     2.000       -0.1813289E+01                 0.7246225E-05
                          5P3/2  5.0  1.0  1.5     4.000       -0.1448762E+01                 0.6602120E-05
                          5D3/2  5.0  2.0  1.5     4.000       -0.1486933E+00                 0.3973088E-05
                          5D5/2  5.0  2.0  2.5     0.000       -0.1223153E+00                 0.3735081E-05
                          6S1/2  6.0  0.0  0.5     2.000       -0.1847434E+00                 0.1808440E-05


                                        NUCLEAR CHARGE=   74.000000
                            INTEGRAL OF CHARGE DENSITY=   74.000000
                           SUM OF THE ORBITAL ENERGIES=  -9938.8529
                                          TOTAL ENERGY= -16164.2530
                                        KINETIC ENERGY=  18217.9700
                             NUCLEAR ATTRACTION ENERGY= -40391.9132
                             ELECTRON REPULSION ENERGY=   6333.2551
                                       EXCHANGE ENERGY=   -323.5649

 *******************************************************************************

                             D I R A C   E X I T
 NORMAL TERMINATION



 =================
 Timing Statistics
 =================
  
 Total Used :                     CPU=        0.68      System=        0.00     Elapsed=        0.69

 Calls  Section                     ( Mean, Percentage )
 ---------------------------------------------------------------------------------------------------
     2  ><      ................      0.00    0.00             0.00    0.00             0.00    0.00
     1  EXIT PROCEDURE .........      0.68  100.00             0.00  100.00             0.69  100.00


 Currently Open Files (EXIT00)
 ====================

 Unit    Access Format  Status   Type       Ident (file)
 -------------------------------------------------------
   3      SEQ    FORM   TRANSP  NORMAL      LOGFILE
                                          ( logfile )
 
Create W   file=TZP-W.4d
XC
  GGA PBE
End
relativistic ZORA
Corepotentials t12.rel
End

 *******************************************************************************
 *                                                                             *
 *  -------------------------------------                                      *
 *   Amsterdam Density Functional  (ADF)         2019                          *
 *  -------------------------------------                                      *
 *                                               r79301 2019-11-09             *
 *                                                                             *
 *                                                                             *
 *                              =================                              *
 *                              |               |                              *
 *                              |     A D F     |                              *
 *                              |               |                              *
 *                              =================                              *
 *                                                                             *
 *                                                                             *
 *   Online information and documentation:  https://www.scm.com/support/       *
 *   E-mail:  support@scm.com   info@scm.com                                   *
 *                                                                             *
 *   Scientific publications using ADF results must be properly referenced     *
 *   See the User Manuals (or the web site) for recommended citations          *
 *   The terms and conditions of the End User License Agreement apply to       *
 *   the use of ADF, https://www.scm.com/license-terms/                        *
 *                                                                             *
 **********************  x86_64_linux_intel / intelmpi  ************************
 
 
 
  
 ADF 2019  RunTime: Oct20-2020 20:21:16  Nodes: 1  Procs: 1

 Temporary files are created in /scratch/kid_0.1654850480 (0x58465342)

 Tungsten (TZP, 4d frozen)



 ===========================
 A T T A C H E D   F I L E S
 ===========================
  
 CREATE - Data File:    TZP-W.4d
                        Tungsten (TZP, 4d frozen)
 Core Potentials:
         file : t12.rel



 ===============================
 M O D E L   P A R A M E T E R S
 ===============================
  
 DENSITY FUNCTIONAL POTENTIAL (scf)
    LDA:                               PW92                                    == Not Default ==
    Gradient Corrections:              PBEc PBEx                               == Not Default ==

 SPIN  (restricted / unrestr.)
    Molecule:                          Restricted                               

 OTHER ASPECTS
    Relativistic Corrections:          scalar (ZORA,MAPA)                      == Not Default ==

    Nuclear Charge Density Model:      Point Charge Nuclei                      
    Core Treatment:                    Frozen Orbital(s)                        

    Hyperfine or Zeeman Interaction:   ---                                      



 =====================================
 S Y M M E T R Y ,   E L E C T R O N S
 =====================================
  
 Symmetry: ATOM

 Irreducible Representations, including subspecies
 -------------------------------------------------
 S
 P:x  P:y  P:z
 D:z2  D:x2-y2  D:xy  D:xz  D:yz
 F:z3  F:z  F:xyz  F:z2x  F:z2y  F:x  F:y


 Configuration of Valence Electrons
 ==================================

          Occupation Numbers
          -------------------------------------------------
 S        2*2
 P        6
 D        4
 F        14
          -------------------------------------------------

 Total:   28

 Net Charge: 0 (Nuclei minus Electrons)

 Preset values for MO occupations will be applied through SCF cycle no. 1000000
 Thereafter, the program will assign electrons to MOs that are spatially
 similar to the occupied MOs in a "reference" cycle ("KeepOrbitals").
 The reference cycle is always the PREVIOUS cycle: it will evolve with
 the SCF procedure.



 ================================
 (Slater-type)  F U N C T I O N S  ***  (Basis and Fit)  ***
 ================================
  

 Atom Type    1  (W)
 ==============

 Valence Basis Sets:  25
 -----------------------
   1 S   52.000000
   2 S   33.250000
   3 S   19.100000
   4 S   11.650000
   2 P   36.850000
   3 P   16.500000
   4 P   11.550000
   3 D   20.100000
   4 D   10.300000
   1 S  163.900000
   5 S    6.050000
   5 S    3.950000
   6 S    2.850000
   6 S    1.800000
   6 S    1.140000
   5 P    5.900000
   5 P    4.000000
   5 P    2.700000
   5 D    4.150000
   5 D    2.250000
   5 D    1.200000
   4 F   13.550000
   4 F    7.050000
   4 F    3.550000
   6 P    1.800000

 Frozen Core Shells
 ------------------
    S:  4
    P:  3
    D:  2


 BAS: List of all Elementary Cartesian Basis Functions
 =====================================================

 The numbering in the list below (to the right of the function characteristics) is referred
 to in print-outs of MO eigenvectors and Mulliken populations in the BAS representation
 (as contrasted to the SFO representation).

 Notes:
 1. The functions are characterized by a polynomial prefactor (powers of x,y,z and r) and
    an exponential decay factor alpha.
 2. Since the basis sets are specific for an atom TYPE, the individual functions occur on
    all atoms of that type.
 3. The word 'Core' in the left margin signals that it is a Core Function (CF) : not a
    degree of freedom in the valence set, but only used to ensure orthogonalization of
    the other valence basis functions on the frozen Core Orbitals.


 (power of) X  Y  Z  R     Alpha  on Atom
            ==========     =====     ==========

 W                                    1
                                  ---------------------------------------------------------------------------
    Core    0  0  0  0    52.000      1
    Core    0  0  0  1    33.250      2
    Core    0  0  0  2    19.100      3
    Core    0  0  0  3    11.650      4
    Core    1  0  0  0    36.850      5
    Core    0  1  0  0    36.850      6
    Core    0  0  1  0    36.850      7
    Core    1  0  0  1    16.500      8
    Core    0  1  0  1    16.500      9
    Core    0  0  1  1    16.500     10
    Core    1  0  0  2    11.550     11
    Core    0  1  0  2    11.550     12
    Core    0  0  1  2    11.550     13
    Core    2  0  0  0    20.100     14
    Core    1  1  0  0    20.100     15
    Core    1  0  1  0    20.100     16
    Core    0  2  0  0    20.100     17
    Core    0  1  1  0    20.100     18
    Core    0  0  2  0    20.100     19
    Core    2  0  0  1    10.300     20
    Core    1  1  0  1    10.300     21
    Core    1  0  1  1    10.300     22
    Core    0  2  0  1    10.300     23
    Core    0  1  1  1    10.300     24
    Core    0  0  2  1    10.300     25
            0  0  0  0   163.900     26
            0  0  0  4     6.050     27
            0  0  0  4     3.950     28
            0  0  0  5     2.850     29
            0  0  0  5     1.800     30
            0  0  0  5     1.140     31
            1  0  0  3     5.900     32
            0  1  0  3     5.900     33
            0  0  1  3     5.900     34
            1  0  0  3     4.000     35
            0  1  0  3     4.000     36
            0  0  1  3     4.000     37
            1  0  0  3     2.700     38
            0  1  0  3     2.700     39
            0  0  1  3     2.700     40
            2  0  0  2     4.150     41
            1  1  0  2     4.150     42
            1  0  1  2     4.150     43
            0  2  0  2     4.150     44
            0  1  1  2     4.150     45
            0  0  2  2     4.150     46
            2  0  0  2     2.250     47
            1  1  0  2     2.250     48
            1  0  1  2     2.250     49
            0  2  0  2     2.250     50
            0  1  1  2     2.250     51
            0  0  2  2     2.250     52
            2  0  0  2     1.200     53
            1  1  0  2     1.200     54
            1  0  1  2     1.200     55
            0  2  0  2     1.200     56
            0  1  1  2     1.200     57
            0  0  2  2     1.200     58
            3  0  0  0    13.550     59
            2  1  0  0    13.550     60
            2  0  1  0    13.550     61
            1  2  0  0    13.550     62
            1  1  1  0    13.550     63
            1  0  2  0    13.550     64
            0  3  0  0    13.550     65
            0  2  1  0    13.550     66
            0  1  2  0    13.550     67
            0  0  3  0    13.550     68
            3  0  0  0     7.050     69
            2  1  0  0     7.050     70
            2  0  1  0     7.050     71
            1  2  0  0     7.050     72
            1  1  1  0     7.050     73
            1  0  2  0     7.050     74
            0  3  0  0     7.050     75
            0  2  1  0     7.050     76
            0  1  2  0     7.050     77
            0  0  3  0     7.050     78
            3  0  0  0     3.550     79
            2  1  0  0     3.550     80
            2  0  1  0     3.550     81
            1  2  0  0     3.550     82
            1  1  1  0     3.550     83
            1  0  2  0     3.550     84
            0  3  0  0     3.550     85
            0  2  1  0     3.550     86
            0  1  2  0     3.550     87
            0  0  3  0     3.550     88
            1  0  0  4     1.800     89
            0  1  0  4     1.800     90
            0  0  1  4     1.800     91

 Total number of charge fitting functions (nprimf)       329
 Total number of Cartesian basis functions (naos)         91
 Total number of Cartesian core functions  (ncos)         25



 BAS: List of all Elementary Cartesian Basis Functions
 =====================================================

 The numbering in the list below (to the right of the function characteristics) is referred
 to in print-outs of MO eigenvectors and Mulliken populations in the BAS representation
 (as contrasted to the SFO representation).

 Notes:
 1. The functions are characterized by a polynomial prefactor (powers of x,y,z and r) and
    an exponential decay factor alpha.
 2. Since the basis sets are specific for an atom TYPE, the individual functions occur on
    all atoms of that type.
 3. The word 'Core' in the left margin signals that it is a Core Function (CF) : not a
    degree of freedom in the valence set, but only used to ensure orthogonalization of
    the other valence basis functions on the frozen Core Orbitals.


 (power of) X  Y  Z  R     Alpha  on Atom
            ==========     =====     ==========

 W                                    1
                                  ---------------------------------------------------------------------------
    Core    0  0  0  0    52.000      1
    Core    0  0  0  1    33.250      2
    Core    0  0  0  2    19.100      3
    Core    0  0  0  3    11.650      4
    Core    1  0  0  0    36.850      5
    Core    0  1  0  0    36.850      6
    Core    0  0  1  0    36.850      7
    Core    1  0  0  1    16.500      8
    Core    0  1  0  1    16.500      9
    Core    0  0  1  1    16.500     10
    Core    1  0  0  2    11.550     11
    Core    0  1  0  2    11.550     12
    Core    0  0  1  2    11.550     13
    Core    2  0  0  0    20.100     14
    Core    1  1  0  0    20.100     15
    Core    1  0  1  0    20.100     16
    Core    0  2  0  0    20.100     17
    Core    0  1  1  0    20.100     18
    Core    0  0  2  0    20.100     19
    Core    2  0  0  1    10.300     20
    Core    1  1  0  1    10.300     21
    Core    1  0  1  1    10.300     22
    Core    0  2  0  1    10.300     23
    Core    0  1  1  1    10.300     24
    Core    0  0  2  1    10.300     25
            0  0  0  0   163.900     26
            0  0  0  4     6.050     27
            0  0  0  4     3.950     28
            0  0  0  5     2.850     29
            0  0  0  5     1.800     30
            0  0  0  5     1.140     31
            1  0  0  3     5.900     32
            0  1  0  3     5.900     33
            0  0  1  3     5.900     34
            1  0  0  3     4.000     35
            0  1  0  3     4.000     36
            0  0  1  3     4.000     37
            1  0  0  3     2.700     38
            0  1  0  3     2.700     39
            0  0  1  3     2.700     40
            2  0  0  2     4.150     41
            1  1  0  2     4.150     42
            1  0  1  2     4.150     43
            0  2  0  2     4.150     44
            0  1  1  2     4.150     45
            0  0  2  2     4.150     46
            2  0  0  2     2.250     47
            1  1  0  2     2.250     48
            1  0  1  2     2.250     49
            0  2  0  2     2.250     50
            0  1  1  2     2.250     51
            0  0  2  2     2.250     52
            2  0  0  2     1.200     53
            1  1  0  2     1.200     54
            1  0  1  2     1.200     55
            0  2  0  2     1.200     56
            0  1  1  2     1.200     57
            0  0  2  2     1.200     58
            3  0  0  0    13.550     59
            2  1  0  0    13.550     60
            2  0  1  0    13.550     61
            1  2  0  0    13.550     62
            1  1  1  0    13.550     63
            1  0  2  0    13.550     64
            0  3  0  0    13.550     65
            0  2  1  0    13.550     66
            0  1  2  0    13.550     67
            0  0  3  0    13.550     68
            3  0  0  0     7.050     69
            2  1  0  0     7.050     70
            2  0  1  0     7.050     71
            1  2  0  0     7.050     72
            1  1  1  0     7.050     73
            1  0  2  0     7.050     74
            0  3  0  0     7.050     75
            0  2  1  0     7.050     76
            0  1  2  0     7.050     77
            0  0  3  0     7.050     78
            3  0  0  0     3.550     79
            2  1  0  0     3.550     80
            2  0  1  0     3.550     81
            1  2  0  0     3.550     82
            1  1  1  0     3.550     83
[...]
 <Oct20-2020> <20:59:44>  >>>> POPAN
 <Oct20-2020> <20:59:44>  >>>> DEBYE
 <Oct20-2020> <20:59:44>  >>>> ENGRAD
 <Oct20-2020> <20:59:47>  current energy                               -4.89794389 Hartree
 <Oct20-2020> <20:59:47>  energy change                      -0.00016835     0.00100000    T
 <Oct20-2020> <20:59:47>  constrained gradient max            0.00100410     0.00100000    F
 <Oct20-2020> <20:59:47>  constrained gradient rms            0.00040125     0.00066667    T
 <Oct20-2020> <20:59:47>  gradient max                        0.00100410
 <Oct20-2020> <20:59:47>  gradient rms                        0.00040125
 <Oct20-2020> <20:59:47>  cart. step max                      0.02098366     0.01000000    F
 <Oct20-2020> <20:59:47>  cart. step rms                      0.00738367     0.00666667    F
  Coordinates in Geometry Cycle 92
    Atom         X           Y           Z   (Angstrom)
    1.W        13.849774   10.664729    2.474263
    2.O        13.271305   11.344001    0.769437
    3.W        11.662872   11.509021    4.811428
    4.W         9.872340   11.187024    2.145535
    5.O        11.931602   13.085042    5.540786
    6.O        13.978948    8.924067    2.367836
    7.O        10.532132   11.698904    0.581070
    8.O         8.316303   12.356812    2.119848
    9.O        13.539471   11.147353    4.319916
   10.O        15.497180   11.255100    2.360828
   11.O        11.680033   10.770744    2.833537
   12.O        11.396561   10.347559    6.095280
   13.O         9.903504   11.784901    4.094419
   14.O         9.192746    9.590973    1.940286
   15.H        12.282427   11.447380    0.652290
   16.H         8.039729   12.633060    3.016720
 <Oct20-2020> <20:59:47>  >>>> CORORT
 <Oct20-2020> <20:59:47>  >>>> CLSMAT
 <Oct20-2020> <20:59:47>  >>>> ORTHON
 <Oct20-2020> <20:59:47>  >>>> GENPT
 <Oct20-2020> <20:59:47>  Block Length= 128
 <Oct20-2020> <20:59:47>  >>>> PTBAS
 <Oct20-2020> <20:59:48>  combining surface points...
 <Oct20-2020> <20:59:48>  combining surface points...
 <Oct20-2020> <20:59:48>  combining surface points...
 <Oct20-2020> <20:59:48>  >>>> CYCLE
 <Oct20-2020> <20:59:50>              |Error|         MaxErr       Wt(A-DIIS)
 <Oct20-2020> <20:59:50>      1      0.68218532      0.22986355
 <Oct20-2020> <20:59:51>      2      0.27007915      0.04166341    100.0
 <Oct20-2020> <20:59:52>      3      0.10379710      0.01440645    100.0
 <Oct20-2020> <20:59:53>      4      0.19539635      0.03026585    100.0
 <Oct20-2020> <20:59:54>      5      0.10564323      0.01306778     12.2
 <Oct20-2020> <20:59:56>      6      0.03708663      0.00579736      4.8
 <Oct20-2020> <20:59:57>      7      0.02243255      0.00322394      2.2
 <Oct20-2020> <20:59:58>      8      0.00983305      0.00136135      0.4
 <Oct20-2020> <20:59:59>      9      0.00338089      0.00073346      0.0
 <Oct20-2020> <21:00:00>     10      0.00137293      0.00025321      0.0
 <Oct20-2020> <21:00:01>     11      0.00064121      0.00008711      0.0
 <Oct20-2020> <21:00:02>     12      0.00025615      0.00003816      0.0
 <Oct20-2020> <21:00:03>     13      0.00014931      0.00002407      0.0
 <Oct20-2020> <21:00:04>     14      0.00005673      0.00001034      0.0
 <Oct20-2020> <21:00:05>     15      0.00003904      0.00000757      0.0
 <Oct20-2020> <21:00:06>     16      0.00001295      0.00000186      0.0
 <Oct20-2020> <21:00:07>     17      0.00000266      0.00000066      0.0
 <Oct20-2020> <21:00:07>  SCF converged
 <Oct20-2020> <21:00:08>     18      0.00000241      0.00000043      0.0
 <Oct20-2020> <21:00:08>  >>>> TOTEN
 <Oct20-2020> <21:00:09>  >>>> POPAN
 <Oct20-2020> <21:00:09>  >>>> DEBYE
 <Oct20-2020> <21:00:09>  >>>> ENGRAD
 <Oct20-2020> <21:00:12>  current energy                               -4.89796551 Hartree
 <Oct20-2020> <21:00:12>  energy change                      -0.00002162     0.00100000    T
 <Oct20-2020> <21:00:12>  constrained gradient max            0.00330103     0.00100000    F
 <Oct20-2020> <21:00:12>  constrained gradient rms            0.00086744     0.00066667    F
 <Oct20-2020> <21:00:12>  gradient max                        0.00330103
 <Oct20-2020> <21:00:12>  gradient rms                        0.00086744
 <Oct20-2020> <21:00:12>  cart. step max                      0.01127831     0.01000000    F
 <Oct20-2020> <21:00:12>  cart. step rms                      0.00457847     0.00666667    T
  Coordinates in Geometry Cycle 93
    Atom         X           Y           Z   (Angstrom)
    1.W        13.849962   10.667780    2.474700
    2.O        13.270423   11.346304    0.770190
    3.W        11.662694   11.509304    4.810501
    4.W         9.871904   11.184384    2.145899
    5.O        11.930499   13.079948    5.552065
    6.O        13.981279    8.927085    2.371402
    7.O        10.530578   11.689963    0.578930
    8.O         8.316725   12.356234    2.119413
    9.O        13.540205   11.155847    4.318329
   10.O        15.496911   11.258952    2.359163
   11.O        11.678376   10.761636    2.833520
   12.O        11.392966   10.339277    6.085562
   13.O         9.906664   11.794925    4.090342
   14.O         9.187218    9.589802    1.945732
   15.H        12.281131   11.444223    0.651248
   16.H         8.049391   12.641004    3.016483
 <Oct20-2020> <21:00:12>  >>>> CORORT
 <Oct20-2020> <21:00:12>  >>>> CLSMAT
 <Oct20-2020> <21:00:12>  >>>> ORTHON
 <Oct20-2020> <21:00:12>  >>>> GENPT
 <Oct20-2020> <21:00:12>  Block Length= 128
 <Oct20-2020> <21:00:12>  >>>> PTBAS
 <Oct20-2020> <21:00:13>  combining surface points...
 <Oct20-2020> <21:00:13>  combining surface points...
 <Oct20-2020> <21:00:13>  combining surface points...
 <Oct20-2020> <21:00:13>  >>>> CYCLE
 <Oct20-2020> <21:00:15>              |Error|         MaxErr       Wt(A-DIIS)
 <Oct20-2020> <21:00:15>      1      0.46099477      0.20143788
 <Oct20-2020> <21:00:16>      2      0.27025071      0.04202721    100.0
 <Oct20-2020> <21:00:17>      3      0.09496396      0.01140529    100.0
 <Oct20-2020> <21:00:18>      4      0.18212951      0.02851681    100.0
 <Oct20-2020> <21:00:19>      5      0.13316988      0.01707997    100.0
 <Oct20-2020> <21:00:21>      6      0.09739280      0.01552805     14.7
 <Oct20-2020> <21:00:22>      7      0.03248681      0.00600763      5.1
 <Oct20-2020> <21:00:23>      8      0.01100609      0.00241533      1.4
 <Oct20-2020> <21:00:24>      9      0.00587896      0.00080051      0.0
 <Oct20-2020> <21:00:25>     10      0.00219280      0.00027758      0.0
 <Oct20-2020> <21:00:26>     11      0.00105326      0.00016353      0.0
 <Oct20-2020> <21:00:27>     12      0.00026670      0.00003842      0.0
 <Oct20-2020> <21:00:28>     13      0.00022065      0.00003795      0.0
 <Oct20-2020> <21:00:29>     14      0.00006145      0.00001338      0.0
 <Oct20-2020> <21:00:30>     15      0.00003912      0.00000418      0.0
 <Oct20-2020> <21:00:31>     16      0.00001609      0.00000290      0.0
 <Oct20-2020> <21:00:32>     17      0.00000770      0.00000109      0.0
 <Oct20-2020> <21:00:33>     18      0.00000735      0.00000120      0.0
 <Oct20-2020> <21:00:34>     19      0.00000582      0.00000123      0.0
 <Oct20-2020> <21:00:35>     20      0.00000106      0.00000015      0.0
 <Oct20-2020> <21:00:35>  SCF converged
 <Oct20-2020> <21:00:36>     21      0.00000136      0.00000020      0.0
 <Oct20-2020> <21:00:36>  >>>> TOTEN
 <Oct20-2020> <21:00:37>  >>>> POPAN
 <Oct20-2020> <21:00:37>  >>>> DEBYE
 <Oct20-2020> <21:00:37>  >>>> ENGRAD
 <Oct20-2020> <21:00:40>  current energy                               -4.89800002 Hartree
 <Oct20-2020> <21:00:40>  energy change                      -0.00003451     0.00100000    T
 <Oct20-2020> <21:00:40>  constrained gradient max            0.00382166     0.00100000    F
 <Oct20-2020> <21:00:40>  constrained gradient rms            0.00098507     0.00066667    F
 <Oct20-2020> <21:00:40>  gradient max                        0.00382166
 <Oct20-2020> <21:00:40>  gradient rms                        0.00098507
 <Oct20-2020> <21:00:40>  cart. step max                      0.00705462     0.01000000    T
 <Oct20-2020> <21:00:40>  cart. step rms                      0.00224504     0.00666667    T
  Coordinates in Geometry Cycle 94
    Atom         X           Y           Z   (Angstrom)
    1.W        13.850201   10.669454    2.474846
    2.O        13.269763   11.348899    0.771250
    3.W        11.662479   11.508888    4.810209
    4.W         9.871652   11.182393    2.146326
    5.O        11.929812   13.078293    5.554750
    6.O        13.982617    8.928766    2.372152
    7.O        10.530890   11.684131    0.578319
    8.O         8.318734   12.357557    2.118694
    9.O        13.540333   11.159626    4.317252
   10.O        15.496945   11.261004    2.358414
   11.O        11.676804   10.754581    2.834153
   12.O        11.392255   10.336332    6.082708
   13.O         9.907563   11.797048    4.089093
   14.O         9.182447    9.589509    1.947921
   15.H        12.280163   11.444791    0.651705
   16.H         8.054267   12.645395    3.015687
 <Oct20-2020> <21:00:40>  >>>> CORORT
 <Oct20-2020> <21:00:40>  >>>> CLSMAT
 <Oct20-2020> <21:00:40>  >>>> ORTHON
 <Oct20-2020> <21:00:40>  >>>> GENPT
 <Oct20-2020> <21:00:40>  Block Length= 128
 <Oct20-2020> <21:00:40>  >>>> PTBAS
 <Oct20-2020> <21:00:41>  combining surface points...
 <Oct20-2020> <21:00:41>  combining surface points...
 <Oct20-2020> <21:00:41>  combining surface points...
 <Oct20-2020> <21:00:41>  >>>> CYCLE
 <Oct20-2020> <21:00:43>              |Error|         MaxErr       Wt(A-DIIS)
 <Oct20-2020> <21:00:43>      1      0.21652210      0.07210938
 <Oct20-2020> <21:00:44>      2      0.27112031      0.04231968    100.0
 <Oct20-2020> <21:00:45>      3      0.09322567      0.01090575    100.0
 <Oct20-2020> <21:00:46>      4      0.16804422      0.02644347    100.0
 <Oct20-2020> <21:00:47>      5      0.15709946      0.02090793    100.0
 <Oct20-2020> <21:00:48>      6      0.08517147      0.01326748     12.4
 <Oct20-2020> <21:00:50>      7      0.03381155      0.00656107      5.6
 <Oct20-2020> <21:00:51>      8      0.01051688      0.00240940      1.4
 <Oct20-2020> <21:00:52>      9      0.00588824      0.00084532      0.0
 <Oct20-2020> <21:00:53>     10      0.00220347      0.00028450      0.0
 <Oct20-2020> <21:00:54>     11      0.00103991      0.00016304      0.0
 <Oct20-2020> <21:00:55>     12      0.00027692      0.00003949      0.0
 <Oct20-2020> <21:00:56>     13      0.00020567      0.00003560      0.0
 <Oct20-2020> <21:00:57>     14      0.00006972      0.00001574      0.0
 <Oct20-2020> <21:00:58>     15      0.00003160      0.00000370      0.0
 <Oct20-2020> <21:00:59>     16      0.00001916      0.00000353      0.0
 <Oct20-2020> <21:01:00>     17      0.00000736      0.00000101      0.0
 <Oct20-2020> <21:01:00>     18      0.00000730      0.00000127      0.0
 <Oct20-2020> <21:01:01>     19      0.00000538      0.00000120      0.0
 <Oct20-2020> <21:01:02>     20      0.00000084      0.00000012      0.0
 <Oct20-2020> <21:01:03>  SCF converged
 <Oct20-2020> <21:01:03>     21      0.00000129      0.00000018      0.0
 <Oct20-2020> <21:01:04>  >>>> TOTEN
 <Oct20-2020> <21:01:05>  >>>> POPAN
 <Oct20-2020> <21:01:05>  >>>> DEBYE
 <Oct20-2020> <21:01:05>  >>>> ENGRAD
 <Oct20-2020> <21:01:08>  current energy                               -4.89799522 Hartree
 <Oct20-2020> <21:01:08>  energy change                       0.00000480     0.00100000    T
 <Oct20-2020> <21:01:08>  constrained gradient max            0.00411423     0.00100000    F
 <Oct20-2020> <21:01:08>  constrained gradient rms            0.00108108     0.00066667    F
 <Oct20-2020> <21:01:08>  gradient max                        0.00411423
 <Oct20-2020> <21:01:08>  gradient rms                        0.00108108
 <Oct20-2020> <21:01:08>  cart. step max                      0.01582934     0.01000000    F
 <Oct20-2020> <21:01:08>  cart. step rms                      0.00563868     0.00666667    T
  Coordinates in Geometry Cycle 95
    Atom         X           Y           Z   (Angstrom)
    1.W        13.845512   10.668493    2.472668
    2.O        13.264142   11.345273    0.767438
    3.W        11.664104   11.510812    4.814266
    4.W         9.876558   11.185179    2.145789
    5.O        11.932632   13.074466    5.570258
    6.O        13.974114    8.927568    2.371590
    7.O        10.534843   11.689047    0.578352
    8.O         8.314396   12.348145    2.112793
    9.O        13.541990   11.160104    4.318266
   10.O        15.492942   11.257407    2.352789
   11.O        11.680303   10.769185    2.840845
   12.O        11.388793   10.332914    6.080823
   13.O         9.911289   11.807812    4.088131
   14.O         9.198276    9.587246    1.950524
   15.H        12.275008   11.441690    0.650347
   16.H         8.052023   12.641326    3.008599
 <Oct20-2020> <21:01:08>  >>>> CORORT
 <Oct20-2020> <21:01:08>  >>>> CLSMAT
 <Oct20-2020> <21:01:08>  >>>> ORTHON
 <Oct20-2020> <21:01:08>  >>>> GENPT
 <Oct20-2020> <21:01:08>  Block Length= 128
 <Oct20-2020> <21:01:08>  >>>> PTBAS
 <Oct20-2020> <21:01:09>  combining surface points...
 <Oct20-2020> <21:01:09>  combining surface points...
 <Oct20-2020> <21:01:09>  combining surface points...
 <Oct20-2020> <21:01:09>  >>>> CYCLE
 <Oct20-2020> <21:01:11>              |Error|         MaxErr       Wt(A-DIIS)
 <Oct20-2020> <21:01:11>      1      0.57633194      0.20774761
 <Oct20-2020> <21:01:12>      2      0.26825732      0.04197743    100.0
 <Oct20-2020> <21:01:13>      3      0.08910086      0.01141264    100.0
 <Oct20-2020> <21:01:14>      4      0.13261157      0.02086122    100.0
 <Oct20-2020> <21:01:15>      5      0.24150580      0.03395412    100.0
 <Oct20-2020> <21:01:16>      6      0.05556049      0.00694073      6.0
 <Oct20-2020> <21:01:17>      7      0.02705372      0.00591294      5.0
 <Oct20-2020> <21:01:18>      8      0.00943691      0.00230235      1.3
 <Oct20-2020> <21:01:20>      9      0.00531681      0.00107726      0.1
 <Oct20-2020> <21:01:21>     10      0.00202740      0.00029215      0.0
 <Oct20-2020> <21:01:22>     11      0.00094112      0.00015373      0.0
 <Oct20-2020> <21:01:23>     12      0.00028839      0.00005320      0.0
 <Oct20-2020> <21:01:24>     13      0.00012698      0.00001872      0.0
 <Oct20-2020> <21:01:25>     14      0.00011219      0.00002234      0.0
 <Oct20-2020> <21:01:26>     15      0.00002254      0.00000330      0.0
 <Oct20-2020> <21:01:26>     16      0.00002447      0.00000314      0.0
 <Oct20-2020> <21:01:27>     17      0.00000345      0.00000064      0.0
 <Oct20-2020> <21:01:28>  SCF converged
 <Oct20-2020> <21:01:28>     18      0.00000379      0.00000067      0.0
 <Oct20-2020> <21:01:29>  >>>> TOTEN
 <Oct20-2020> <21:01:30>  >>>> POPAN
 <Oct20-2020> <21:01:30>  >>>> DEBYE
 <Oct20-2020> <21:01:30>  >>>> ENGRAD
 <Oct20-2020> <21:01:33>  current energy                               -4.89810842 Hartree
 <Oct20-2020> <21:01:33>  energy change                      -0.00011320     0.00100000    T
 <Oct20-2020> <21:01:33>  constrained gradient max            0.00093591     0.00100000    T
 <Oct20-2020> <21:01:33>  constrained gradient rms            0.00034345     0.00066667    T
 <Oct20-2020> <21:01:33>  gradient max                        0.00093591
 <Oct20-2020> <21:01:33>  gradient rms                        0.00034345
 <Oct20-2020> <21:01:33>  cart. step max                      0.00858826     0.01000000    T
 <Oct20-2020> <21:01:33>  cart. step rms                      0.00237841     0.00666667    T
 <Oct20-2020> <21:01:33>  GEOMETRY CONVERGED
 <Oct20-2020> <21:01:33>  Calculating Energy Terms for Final Geometry
  Coordinates in Geometry Cycle 95
    Atom         X           Y           Z   (Angstrom)
    1.W        13.845512   10.668493    2.472668
    2.O        13.264142   11.345273    0.767438
    3.W        11.664104   11.510812    4.814266
    4.W         9.876558   11.185179    2.145789
    5.O        11.932632   13.074466    5.570258
    6.O        13.974114    8.927568    2.371590
    7.O        10.534843   11.689047    0.578352
    8.O         8.314396   12.348145    2.112793
    9.O        13.541990   11.160104    4.318266
   10.O        15.492942   11.257407    2.352789
   11.O        11.680303   10.769185    2.840845
   12.O        11.388793   10.332914    6.080823
   13.O         9.911289   11.807812    4.088131
   14.O         9.198276    9.587246    1.950524
   15.H        12.275008   11.441690    0.650347
   16.H         8.052023   12.641326    3.008599
 <Oct20-2020> <21:01:33>  >>>> CORORT
 <Oct20-2020> <21:01:33>  >>>> CLSMAT
 <Oct20-2020> <21:01:33>  >>>> ORTHON
 <Oct20-2020> <21:01:33>  >>>> GENPT
 <Oct20-2020> <21:01:33>  Block Length= 128
 <Oct20-2020> <21:01:33>  >>>> PTBAS
 <Oct20-2020> <21:01:34>  combining surface points...
 <Oct20-2020> <21:01:34>  combining surface points...
 <Oct20-2020> <21:01:34>  combining surface points...
 <Oct20-2020> <21:01:34>  >>>> CYCLE
 <Oct20-2020> <21:01:36>              |Error|         MaxErr       Wt(A-DIIS)
 <Oct20-2020> <21:01:36>      1      0.08623183      0.01790561
 <Oct20-2020> <21:01:37>      2      0.27185659      0.05309690    100.0
 <Oct20-2020> <21:01:38>      3      0.09300255      0.01820703    100.0
 <Oct20-2020> <21:01:39>      4      0.16593441      0.03263004    100.0
 <Oct20-2020> <21:01:40>      5      0.16348548      0.02839856    100.0
 <Oct20-2020> <21:01:41>      6      0.08064212      0.01117384     10.3
 <Oct20-2020> <21:01:43>      7      0.03250834      0.00617493      5.2
 <Oct20-2020> <21:01:44>      8      0.01007881      0.00227969      1.3
 <Oct20-2020> <21:01:45>      9      0.00573061      0.00080964      0.0
 <Oct20-2020> <21:01:46>     10      0.00219245      0.00036505      0.0
 <Oct20-2020> <21:01:47>     11      0.00100829      0.00018617      0.0
 <Oct20-2020> <21:01:48>     12      0.00028091      0.00004288      0.0
 <Oct20-2020> <21:01:49>     13      0.00019028      0.00003545      0.0
 <Oct20-2020> <21:01:50>     14      0.00006931      0.00001534      0.0
 <Oct20-2020> <21:01:51>     15      0.00003574      0.00000423      0.0
 <Oct20-2020> <21:01:52>     16      0.00002028      0.00000509      0.0
 <Oct20-2020> <21:01:53>     17      0.00000767      0.00000135      0.0
 <Oct20-2020> <21:01:54>     18      0.00000734      0.00000111      0.0
 <Oct20-2020> <21:01:55>     19      0.00000504      0.00000113      0.0
 <Oct20-2020> <21:01:56>     20      0.00000076      0.00000010      0.0
 <Oct20-2020> <21:01:56>  SCF converged
 <Oct20-2020> <21:01:56>     21      0.00000127      0.00000021      0.0
 <Oct20-2020> <21:01:57>  >>>> TOTEN
 <Oct20-2020> <21:02:00>  QTAIM: determining topology...
 <Oct20-2020> <21:02:01>  >>>> POPAN
 <Oct20-2020> <21:02:01>  >>>> DEBYE
 <Oct20-2020> <21:02:01>  >>>> AMETS
 <Oct20-2020> <21:02:01>  >>>> POPUL
 <Oct20-2020> <21:02:01>   Bond Energy          -4.89810842 a.u.
 <Oct20-2020> <21:02:01>   Bond Energy        -133.28431175 eV
 <Oct20-2020> <21:02:01>   Bond Energy       -3073.61       kcal/mol
 <Oct20-2020> <21:02:01>  >>>> ENHESS
 <Oct20-2020> <21:02:04>  === NUCLEUS:     1
 <Oct20-2020> <21:03:09>  === NUCLEUS:     2
 <Oct20-2020> <21:04:10>  === NUCLEUS:     3
 <Oct20-2020> <21:05:11>  === NUCLEUS:     4
 <Oct20-2020> <21:06:09>  === NUCLEUS:     5
 <Oct20-2020> <21:07:05>  === NUCLEUS:     6
 <Oct20-2020> <21:08:02>  === NUCLEUS:     7
 <Oct20-2020> <21:08:58>  === NUCLEUS:     8
 <Oct20-2020> <21:09:55>  === NUCLEUS:     9
 <Oct20-2020> <21:10:51>  === NUCLEUS:    10
 <Oct20-2020> <21:11:48>  === NUCLEUS:    11
 <Oct20-2020> <21:12:44>  === NUCLEUS:    12
 <Oct20-2020> <21:13:40>  === NUCLEUS:    13
 <Oct20-2020> <21:14:38>  === NUCLEUS:    14
 <Oct20-2020> <21:15:34>  === NUCLEUS:    15
 <Oct20-2020> <21:16:28>  === NUCLEUS:    16
 <Oct20-2020> <21:17:25>  >>>> CALC_HESS_PMAT
 <Oct20-2020> <21:17:31>  >>>> CALC_HESS_WMAT
 <Oct20-2020> <21:17:33>  NORMAL TERMINATION
 <Oct20-2020> <21:17:33>  END
