
 *******************************************************************************
 *                                                                             *
 *  -------------------------------------                                      *
 *   Amsterdam Density Functional  (ADF)         2019                          *
 *  -------------------------------------                                      *
 *                                               r79301 2019-11-09             *
 *                                                                             *
 *                                                                             *
 *                            =====================                            *
 *                            |                   |                            *
 *                            |     D I R A C     |                            *
 *                            |                   |                            *
 *                            =====================                            *
 *                                                                             *
 *                                                                             *
 *   Online information and documentation:  https://www.scm.com/support/       *
 *   E-mail:  support@scm.com   info@scm.com                                   *
 *                                                                             *
 *   Scientific publications using ADF results must be properly referenced     *
 *   See the User Manuals (or the web site) for recommended citations          *
 *   The terms and conditions of the End User License Agreement apply to       *
 *   the use of ADF, https://www.scm.com/license-terms/                        *
 *                                                                             *
 **********************  x86_64_linux_intel / intelmpi  ************************
 
 
 
  
 DIRAC 2019  RunTime: Sep07-2020 19:10:12  Nodes: 1  Procs: 1

 Temporary files are created in /scratch/kid_0.1120166350 (0x58465342)

1
 HYDROGEN ATOM RELATIVISTIC, Point Nuc, A and c from libtc   
 N J RN H ZN XION ANUC CLIGHT
 5000    1100.00000000197.36710137  1.00000000  0.00000000    1.007825  0.1370360E+03
  PH   PHI     EPS        DEL        DELRVR
  0.30  0.30     2500.00  0.00001000  0.00001000
 IDIRC  NC1  NDEBU NPRIN  IPUN IRCOR IWCOR
   1   300     0     0     0     0     0
   XALPHA      XLATTER      RNUC
  0.70000000  0.00000000  0.00000000 Point Charge
   XN   XL   XJ      XE          XZ      XDELL
  1.0  0.0  0.5      -1.000       1.000     0.00000
 ICORP=  0  NPCL=  0  DEMP=0.00  PEPS=0.000000
 R(1)=  0.1000000E-08 D=  0.1005080E+01 RNUC=  0.0000000E+00
 converged at cycle   32  DENSITY AVERAGING    0.2400
  MAXIMUM ERROR IN R.V(R) IS   0.79874357E-05
 Q,EY,EV,EZ,ESUM,ETOT,RHO  0.100000E+01 -0.266614E+00 -0.619969E+00 -0.910779E+00 -0.203940E+00 -0.415998E+00  0.337036E-17


 DIRAC CALCULATION
1                    HYDROGEN ATOM RELATIVISTIC, Point Nuc, A and c from libtc


 EXCHANGE COEFFICIENT=  0.7000000           TAIL CORRECTION=  0.           NUCLEAR RADIUS=  0.000E+00
0                       ORBITAL    N    L    J     ELECTRONS     EIGENVALUE                DELTA OF EIGENV.

                          1S1/2  1.0  0.0  0.5     1.000       -0.2039397E+00                 0.2720093E-06


                                        NUCLEAR CHARGE=    1.000000
                            INTEGRAL OF CHARGE DENSITY=    1.000000
                           SUM OF THE ORBITAL ENERGIES=     -0.2039
                                          TOTAL ENERGY=     -0.4160
                                        KINETIC ENERGY=      0.4160
                             NUCLEAR ATTRACTION ENERGY=     -0.9108
                             ELECTRON REPULSION ENERGY=      0.2787
                                       EXCHANGE ENERGY=     -0.2000

 *******************************************************************************

                             D I R A C   E X I T
 NORMAL TERMINATION



 =================
 Timing Statistics
 =================
  
 Total Used :                     CPU=        0.06      System=        0.00     Elapsed=        0.07

 Calls  Section                     ( Mean, Percentage )
 ---------------------------------------------------------------------------------------------------
     2  ><      ................      0.00    0.00             0.00    0.00             0.00    0.01
     1  EXIT PROCEDURE .........      0.06  100.00             0.00    0.00             0.07   99.99


 Currently Open Files (EXIT00)
 ====================

 Unit    Access Format  Status   Type       Ident (file)
 -------------------------------------------------------
   3      SEQ    FORM   TRANSP  NORMAL      LOGFILE
                                          ( logfile )
 
Create H   file=TZP-H
XC
  GGA PBE
End
relativistic ZORA
Corepotentials t12.rel
End

 *******************************************************************************
 *                                                                             *
 *  -------------------------------------                                      *
 *   Amsterdam Density Functional  (ADF)         2019                          *
 *  -------------------------------------                                      *
 *                                               r79301 2019-11-09             *
 *                                                                             *
 *                                                                             *
 *                              =================                              *
 *                              |               |                              *
 *                              |     A D F     |                              *
 *                              |               |                              *
 *                              =================                              *
 *                                                                             *
 *                                                                             *
 *   Online information and documentation:  https://www.scm.com/support/       *
 *   E-mail:  support@scm.com   info@scm.com                                   *
 *                                                                             *
 *   Scientific publications using ADF results must be properly referenced     *
 *   See the User Manuals (or the web site) for recommended citations          *
 *   The terms and conditions of the End User License Agreement apply to       *
 *   the use of ADF, https://www.scm.com/license-terms/                        *
 *                                                                             *
 **********************  x86_64_linux_intel / intelmpi  ************************
 
 
 
  
 ADF 2019  RunTime: Sep07-2020 19:10:12  Nodes: 1  Procs: 1

 Temporary files are created in /scratch/kid_0.1872777899 (0x58465342)

 Hydrogen (TZP)



 ===========================
 A T T A C H E D   F I L E S
 ===========================
  
 CREATE - Data File:    TZP-H
                        Hydrogen (TZP)
 Core Potentials:
         file : t12.rel



 ===============================
 M O D E L   P A R A M E T E R S
 ===============================
  
 DENSITY FUNCTIONAL POTENTIAL (scf)
    LDA:                               PW92                                    == Not Default ==
    Gradient Corrections:              PBEc PBEx                               == Not Default ==

 SPIN  (restricted / unrestr.)
    Molecule:                          Restricted                               

 OTHER ASPECTS
    Relativistic Corrections:          scalar (ZORA,MAPA)                      == Not Default ==

    Nuclear Charge Density Model:      Point Charge Nuclei                      
    Core Treatment:                    Frozen Orbital(s)                        

    Hyperfine or Zeeman Interaction:   ---                                      



 =====================================
 S Y M M E T R Y ,   E L E C T R O N S
 =====================================
  
 Symmetry: ATOM

 Irreducible Representations, including subspecies
 -------------------------------------------------
 S
 P:x  P:y  P:z
 D:z2  D:x2-y2  D:xy  D:xz  D:yz
 F:z3  F:z  F:xyz  F:z2x  F:z2y  F:x  F:y


 Configuration of Valence Electrons
 ==================================

          Occupation Numbers
          -------------------------------------------------
 S        1
 P        0
 D        0
 F        0
          -------------------------------------------------

 Total:   1

 Net Charge: 0 (Nuclei minus Electrons)

 Preset values for MO occupations will be applied through SCF cycle no. 1000000
 Thereafter, the program will assign electrons to MOs that are spatially
 similar to the occupied MOs in a "reference" cycle ("KeepOrbitals").
 The reference cycle is always the PREVIOUS cycle: it will evolve with
 the SCF procedure.



 ================================
 (Slater-type)  F U N C T I O N S  ***  (Basis and Fit)  ***
 ================================
  

 Atom Type    1  (H)
 ==============

 Valence Basis Sets:   4
 -----------------------
   1 S    0.690000
   1 S    0.920000
   1 S    1.580000
   2 P    1.250000


 BAS: List of all Elementary Cartesian Basis Functions
 =====================================================

 The numbering in the list below (to the right of the function characteristics) is referred
 to in print-outs of MO eigenvectors and Mulliken populations in the BAS representation
 (as contrasted to the SFO representation).

 Notes:
 1. The functions are characterized by a polynomial prefactor (powers of x,y,z and r) and
    an exponential decay factor alpha.
 2. Since the basis sets are specific for an atom TYPE, the individual functions occur on
    all atoms of that type.
 3. The word 'Core' in the left margin signals that it is a Core Function (CF) : not a
    degree of freedom in the valence set, but only used to ensure orthogonalization of
    the other valence basis functions on the frozen Core Orbitals.


 (power of) X  Y  Z  R     Alpha  on Atom
            ==========     =====     ==========

 H                                    1
                                  ---------------------------------------------------------------------------
            0  0  0  0     0.690      1
            0  0  0  0     0.920      2
            0  0  0  0     1.580      3
            1  0  0  0     1.250      4
            0  1  0  0     1.250      5
            0  0  1  0     1.250      6

 Total number of charge fitting functions (nprimf)        50
 Total number of Cartesian basis functions (naos)          6
 Total number of Cartesian core functions  (ncos)          0



 BAS: List of all Elementary Cartesian Basis Functions
 =====================================================

 The numbering in the list below (to the right of the function characteristics) is referred
 to in print-outs of MO eigenvectors and Mulliken populations in the BAS representation
 (as contrasted to the SFO representation).

 Notes:
 1. The functions are characterized by a polynomial prefactor (powers of x,y,z and r) and
    an exponential decay factor alpha.
 2. Since the basis sets are specific for an atom TYPE, the individual functions occur on
    all atoms of that type.
 3. The word 'Core' in the left margin signals that it is a Core Function (CF) : not a
    degree of freedom in the valence set, but only used to ensure orthogonalization of
    the other valence basis functions on the frozen Core Orbitals.


 (power of) X  Y  Z  R     Alpha  on Atom
            ==========     =====     ==========

 H                                    1
                                  ---------------------------------------------------------------------------
            0  0  0  0     0.690      1
            0  0  0  0     0.920      2
            0  0  0  0     1.580      3
            1  0  0  0     1.250      4
            0  1  0  0     1.250      5
            0  0  1  0     1.250      6
1
 ***************************************************************************************************



                                              ***********************
                                              *  T E C H N I C A L  *
                                              ***********************
  



 =============================================================
 P A R A L L E L I Z A T I O N  and  V E C T O R I Z A T I O N
 =============================================================
  
 Nr of parallel processes:                                1
 Maximum vector length in NumInt loops:                 128



 =====================
 S C F   U P D A T E S
 =====================
  
 Max. nr. of cycles:                               300
 Convergence criterion:                              0.0000000100
   secondary criterion:                              0.0000000100

 Mix parameter (when DIIS does not apply):           0.2000000000
 Special mix parameter for the first cycle:          1.0000000000
 Mixed ADIIS+SDIIS will be used                  
    Max number of expansion vectors:                10
    Pure ADIIS when Max([F,P]) is above              0.1000000000
    Pure SDIIS when Max([F,P]) is below              0.0010000000
 Automatic ElectronSmearing (in case of problematic SCF convergence) disabled



 =================
 P R E C I S I O N  ***  (General: NumInt, NeglectFunctionTails, ...)  ***
 =================
  

 NumInt:           Target precision:                12.0000000000
 -------           Initial precision:               10.0000000000
                   Min. precision (optimization):   10.0000000000

 Neglect Functions:          Basis functions:        0.1000000000E-13
 ------------------          Fit functions:          0.1000000000E-13



 ===========================
 L I N E A R   S C A L I N G
 ===========================
  

 Cut-off radii density fit:                        0.1000000000E-97
 Overlap cut-off criterion AO matrix elements:     0.1000000000E-97
 Cut-offs for Coulomb potential and fitted density:0.1000000000E-97
 Cut-off criterion for Coulomb multipole terms:    0.1000000000E-97
 Progressive Convergence parameter:                 0.000000000    
1
 ***************************************************************************************************



                                            ***************************
                                            *  C O M P U T A T I O N  *
                                            ***************************
  

 Number of elements of the density matrix on this node (used, total):        21        21



 ===========================================
 Numerical Integration : Fuzzy Cells (Becke)
 ===========================================
  
 Becke grid quality: VERYGOOD       
  
 Lebedev angular grid order:             min:  13 max:  41
 Nr. of radial points:                   min:  64 max:  64

 Total nr. of points:         64
 Nr. of blocks:                1
 Block length:                64
 Nr. of dummy points:          0


 Test of Precision of the Numerical Integration Grid
 ===================================================

 Integral of the Total Core Density:                   0.00000000000000



 ========================
 Density Fitting (zlmFit)
 ========================
  
 ZlmFit Fit Quality: VERYGOOD       
  
 Max L-expansion:                        min:   0 max:   0
 Nr. of radial interpolation points:     min: 120 max: 120



 =====
 S C F  ***  ScaSCF  ***
 =====
  

 CYCLE    1
 SCF Error: norm([F,P])=      0.000000000000, max([F,P])=      0.000000000000
 orbitals (Q,E):
 ---------------
 S :1...3            ( 1.00    -0.5000)  ( 0.00    -0.0900)  ( 0.00     1.2936)
 P :1...1            ( 0.00     0.1562)

 CYCLE    2
 SCF Error: norm([F,P])=      0.031537872292, max([F,P])=      0.030110494752
 orbitals (Q,E):
 ---------------
 S :1...2            ( 1.00    -0.2218)  ( 0.00     0.1019)
 P :1...1            ( 0.00     0.4189)

 CYCLE    3
  SDIIS (wt  0.000):  0.1996  0.8004
 A-DIIS (wt  1.000):  0.0000  1.0000
  DIIS coefficients:  0.0000  1.0000
 SCF Error: norm([F,P])=      0.008617989401, max([F,P])=      0.008343029399
 orbitals (Q,E):
 ---------------
 S :1...2            ( 1.00    -0.2422)  ( 0.00     0.0889)
 P :1...1            ( 0.00     0.4024)

 CYCLE    4
  SDIIS (wt  0.993):  0.1666  0.8334
 A-DIIS (wt  0.007):  0.0000  1.0000
  DIIS coefficients:  0.1654  0.8346
 SCF Error: norm([F,P])=      0.001732350026, max([F,P])=      0.001718616814
 orbitals (Q,E):
 ---------------
 S :1...2            ( 1.00    -0.2385)  ( 0.00     0.0908)
 P :1...1            ( 0.00     0.4054)

 CYCLE    5
  SDIIS (wt  1.000):  0.0236  0.9764
  DIIS coefficients:  0.0236  0.9764
 SCF Error: norm([F,P])=      0.000043673449, max([F,P])=      0.000039769875
 orbitals (Q,E):
 ---------------
 S :1...2            ( 1.00    -0.2386)  ( 0.00     0.0908)
 P :1...1            ( 0.00     0.4054)

 CYCLE    6
  SDIIS (wt  1.000): -0.0577  1.0577
  DIIS coefficients: -0.0577  1.0577
 SCF Error: norm([F,P])=      0.000002383805, max([F,P])=      0.000002158128
 orbitals (Q,E):
 ---------------
 S :1...2            ( 1.00    -0.2386)  ( 0.00     0.0908)
 P :1...1            ( 0.00     0.4054)

 CYCLE    7
  SDIIS (wt  1.000): -0.0032  1.0032
  DIIS coefficients: -0.0032  1.0032
 SCF Error: norm([F,P])=      0.000000007721, max([F,P])=      0.000000007228
 orbitals (Q,E):
 ---------------
 S :1...2            ( 1.00    -0.2386)  ( 0.00     0.0908)
 P :1...1            ( 0.00     0.4054)

 SCF CONVERGED

 CYCLE    8
1
 ***************************************************************************************************



                                                *******************
                                                *  R E S U L T S  *
                                                *******************
  
 *** Using FIT density in Focky
  SDIIS (wt  1.000):  0.0192  0.9808
  DIIS coefficients:  0.0192  0.9808
 SCF Error: norm([F,P])=      0.000000000151, max([F,P])=      0.000000000141

 Scaled ZORA Orbital Energies, per Irrep and Spin:
 =================================================
                        Occup              E (au)              E (eV)       Diff (eV) with prev. cycle
                        -----      --------------------        ------       --------------------------
 S
               1        1.000     -0.23861775226993E+00        -6.493               7.43E-09
               2        0.000      0.90791701709251E-01         2.471
               3        0.000      0.15217530108908E+01        41.409
 P
               1        0.000      0.40537978060393E+00        11.031


 Partially Occupied:
               1 S                -0.23861775226993E+00
  
 LUMO :        2 S                 0.90791701709251E-01
  


 Orbital Energies, all Irreps
 ========================================

 Irrep        no.  (spin)   Occup              E (au)                E (eV)
 ---------------------------------------------------------------------------
 S             1             1.00       -0.23861775226993E+00        -6.4931
 S             2             0.00        0.90791701709251E-01         2.4706
 P             1             0.00        0.40537978060393E+00        11.0309
 S             3             0.00        0.15217530108908E+01        41.4090


 All Electron Calculation, thus no Orbital Energies of the Core Orbitals are calculated



 =======================================
 M U L L I K E N   P O P U L A T I O N S
 =======================================
  
 The survey below gives for each atom:
 a) the total charge (Z minus electrons)
 b) the net spin polarization (nr of electrons spin-A minus spin-B)
 c) for each spin the atomic electron valence density (integrated) per L-value.

 Atom              Charge    Spin density          S         P         D         F
 ----              ------    ------------       ------    ------    ------    ------
 1 H              -0.0000                       1.0000    0.0000    0.0000    0.0000

 Populations of individual BAS functions
 ----------------------------------------
 1 H            0.2104  0.6788  0.1107  0.0000  0.0000  0.0000

 Gross Charges per Atom (Z minus electrons)
 ==========================================
            -0.0000
 Net Total: -0.00000000



 =======================================================================
 Electrostatic potential at the Nuclei due to electrons and other nuclei
 =======================================================================
  
         Atom                  Potential
         ----                  ---------
     1)   H                   0.94468022
 
 
 ========================
 No memory problems found
 ========================
 
 Maximum number of active allocate calls:         306
 
 *******************************************************************************

                             A D F   E X I T
 NORMAL TERMINATION



 =================
 Timing Statistics
 =================
  
 Total Used :                     CPU=        0.34      System=        0.03     Elapsed=        0.39

 Calls  Section                     ( Mean, Percentage )
 ---------------------------------------------------------------------------------------------------
     3  ><      ................      0.00    0.00             0.00   14.29             0.00    1.15
     1  INIT    ................      0.07   21.43             0.00   14.29             0.08   20.34
     1  GEOMET  ................      0.01    3.57             0.00   14.29             0.02    6.06
     1  INPUTA  ................      0.00    1.19             0.00    0.00             0.00    0.88
     1  MAINSY  ................      0.01    3.57             0.00    0.00             0.01    3.27
     1  SYMFIT  ................      0.00    0.00             0.00    0.00             0.00    0.45
     1  CORORT  ................      0.00    0.00             0.00    0.00             0.00    0.32
     1  SYMORB  ................      0.00    0.00             0.00    0.00             0.00    0.18
     1  CLSMAT  ................      0.00    0.00             0.01   28.57             0.01    1.37
     1  ORTHON  ................      0.00    1.19             0.00    0.00             0.00    1.24
     1  GENPT   ................      0.01    3.57             0.00    0.00             0.01    3.27
     1  PTBAS   ................      0.00    1.19             0.00    0.00             0.01    1.35
     8  FOCKY   ................      0.02   46.43             0.00   28.57             0.02   44.54
     8  FOCKTR  ................      0.00    4.76             0.00    0.00             0.00    1.23
     8  SDIIS   ................      0.00    3.57             0.00    0.00             0.00    5.64
     1  COREPS  ................      0.02    4.76             0.00    0.00             0.01    3.65
     1  POPAN   ................      0.00    1.19             0.00    0.00             0.00    1.21
     1  DEBYE   ................      0.00    0.00             0.00    0.00             0.00    0.48
     1  EXIT PROCEDURE .........      0.01    3.57             0.00    0.00             0.01    3.36


 Currently Open Files (EXIT00)
 ====================

 Unit    Access Format  Status   Type       Ident (file)
 -------------------------------------------------------
   3      SEQ    FORM   TRANSP  NORMAL      LOGFILE
                                          ( logfile )

 ***************************************************************************************************
 (LOGFILE)
 <Sep07-2020> <19:10:12>  DIRAC 2019  RunTime: Sep07-2020 19:10:12  Nodes: 1  Procs: 1
 <Sep07-2020> <19:10:12>  NORMAL TERMINATION
 <Sep07-2020> <19:10:12>  END
 <Sep07-2020> <19:10:12>  ADF 2019  RunTime: Sep07-2020 19:10:12  Nodes: 1  Procs: 1
 <Sep07-2020> <19:10:12>  Hydrogen (TZP)
 <Sep07-2020> <19:10:12>  RunType   : CREATE
 <Sep07-2020> <19:10:12>  Net Charge: 0 (Nuclei minus Electrons)
 <Sep07-2020> <19:10:12>  Symmetry  : ATOM
  Coordinates
    Atom         X           Y           Z   (Angstrom)
    1.H         0.000000    0.000000    0.000000
 <Sep07-2020> <19:10:12>  >>>> CORORT
 <Sep07-2020> <19:10:12>  >>>> CLSMAT
 <Sep07-2020> <19:10:12>  >>>> ORTHON
 <Sep07-2020> <19:10:12>  >>>> GENPT
 <Sep07-2020> <19:10:12>  Block Length=  64
 <Sep07-2020> <19:10:12>  >>>> PTBAS
 <Sep07-2020> <19:10:12>  >>>> CYCLE
 <Sep07-2020> <19:10:12>              |Error|         MaxErr       Wt(A-DIIS)
 <Sep07-2020> <19:10:12>      1      0.00000000      0.00000000
 <Sep07-2020> <19:10:12>      2      0.03153787      0.03011049
 <Sep07-2020> <19:10:12>      3      0.00861799      0.00834303    100.0
 <Sep07-2020> <19:10:12>      4      0.00173235      0.00171862      0.7
 <Sep07-2020> <19:10:12>      5      0.00004367      0.00003977      0.0
 <Sep07-2020> <19:10:12>      6      0.00000238      0.00000216      0.0
 <Sep07-2020> <19:10:12>      7      0.00000001      0.00000001      0.0
 <Sep07-2020> <19:10:12>  SCF converged
 <Sep07-2020> <19:10:12>      8      0.00000000      0.00000000      0.0
 <Sep07-2020> <19:10:13>  >>>> POPAN
 <Sep07-2020> <19:10:13>  >>>> DEBYE
 <Sep07-2020> <19:10:13>  NORMAL TERMINATION
 <Sep07-2020> <19:10:13>  END

 *******************************************************************************
 *                                                                             *
 *  -------------------------------------                                      *
 *   Amsterdam Density Functional  (ADF)         2019                          *
 *  -------------------------------------                                      *
 *                                               r79301 2019-11-09             *
 *                                                                             *
 *                                                                             *
 *                            =====================                            *
 *                            |                   |                            *
 *                            |     D I R A C     |                            *
 *                            |                   |                            *
 *                            =====================                            *
 *                                                                             *
 *                                                                             *
 *   Online information and documentation:  https://www.scm.com/support/       *
 *   E-mail:  support@scm.com   info@scm.com                                   *
 *                                                                             *
 *   Scientific publications using ADF results must be properly referenced     *
 *   See the User Manuals (or the web site) for recommended citations          *
 *   The terms and conditions of the End User License Agreement apply to       *
 *   the use of ADF, https://www.scm.com/license-terms/                        *
 *                                                                             *
 **********************  x86_64_linux_intel / intelmpi  ************************
 
 
 
  
 DIRAC 2019  RunTime: Sep07-2020 19:10:13  Nodes: 1  Procs: 1

 Temporary files are created in /scratch/kid_0.404840434 (0x58465342)

1
 OXYGEN ATOM 1s CORE RELATIVISTIC, Point Nuc, A and c from li
 N J RN H ZN XION ANUC CLIGHT
 5000    4100.00000000197.36710137  8.00000000  0.00000000   15.994914  0.1370360E+03
  PH   PHI     EPS        DEL        DELRVR
  0.30  0.30     2500.00  0.00001000  0.00001000
 IDIRC  NC1  NDEBU NPRIN  IPUN IRCOR IWCOR
   1   300     0     0     0     0     1
   XALPHA      XLATTER      RNUC
  0.70000000  0.00000000  0.00000000 Point Charge
   XN   XL   XJ      XE          XZ      XDELL
  1.0  0.0  0.5      -5.000       2.000     0.00000
  2.0  0.0  0.5      -1.000       2.000     0.00000
  2.0  1.0  0.5      -1.000       2.000     0.00000
  2.0  1.0  1.5      -1.000       2.000     0.00000
 ICORP=  0  NPCL=  0  DEMP=0.00  PEPS=0.000000
 R(1)=  0.1000000E-08 D=  0.1005080E+01 RNUC=  0.0000000E+00
 converged at cycle   28  DENSITY AVERAGING    0.2400
  MAXIMUM ERROR IN R.V(R) IS   0.81125670E-05
 Q,EY,EV,EZ,ESUM,ETOT,RHO  0.800000E+01 -0.101247E+02 -0.114961E+03 -0.177573E+03 -0.405053E+02 -0.743427E+02  0.414766E-14


 DIRAC CALCULATION
1                    OXYGEN ATOM 1s CORE RELATIVISTIC, Point Nuc, A and c from libtc


 EXCHANGE COEFFICIENT=  0.7000000           TAIL CORRECTION=  0.           NUCLEAR RADIUS=  0.000E+00
0                       ORBITAL    N    L    J     ELECTRONS     EIGENVALUE                DELTA OF EIGENV.

                          1S1/2  1.0  0.0  0.5     2.000       -0.1880014E+02                 0.7264358E-06
                          2S1/2  2.0  0.0  0.5     2.000       -0.8412236E+00                 0.5932752E-05
                          2P1/2  2.0  1.0  0.5     2.000       -0.3063203E+00                 0.5998471E-05
                          2P3/2  2.0  1.0  1.5     2.000       -0.3049609E+00                 0.5986971E-05


                                        NUCLEAR CHARGE=    8.000000
                            INTEGRAL OF CHARGE DENSITY=    8.000000
                           SUM OF THE ORBITAL ENERGIES=    -40.5053
                                          TOTAL ENERGY=    -74.3427
                                        KINETIC ENERGY=     74.4552
                             NUCLEAR ATTRACTION ENERGY=   -177.5730
                             ELECTRON REPULSION ENERGY=     36.3686
                                       EXCHANGE ENERGY=     -7.5935

 *******************************************************************************

                             D I R A C   E X I T
 NORMAL TERMINATION



 =================
 Timing Statistics
 =================
  
 Total Used :                     CPU=        0.10      System=        0.00     Elapsed=        0.11

 Calls  Section                     ( Mean, Percentage )
 ---------------------------------------------------------------------------------------------------
     2  ><      ................      0.00    0.00             0.00    0.00             0.00    0.01
     1  EXIT PROCEDURE .........      0.10  100.00             0.00  100.00             0.11   99.99


 Currently Open Files (EXIT00)
 ====================

 Unit    Access Format  Status   Type       Ident (file)
 -------------------------------------------------------
   3      SEQ    FORM   TRANSP  NORMAL      LOGFILE
                                          ( logfile )
 
Create O   file=TZP-O.1s
XC
  GGA PBE
End
relativistic ZORA
Corepotentials t12.rel
End

 *******************************************************************************
 *                                                                             *
 *  -------------------------------------                                      *
 *   Amsterdam Density Functional  (ADF)         2019                          *
 *  -------------------------------------                                      *
 *                                               r79301 2019-11-09             *
 *                                                                             *
 *                                                                             *
 *                              =================                              *
 *                              |               |                              *
 *                              |     A D F     |                              *
 *                              |               |                              *
 *                              =================                              *
 *                                                                             *
 *                                                                             *
 *   Online information and documentation:  https://www.scm.com/support/       *
 *   E-mail:  support@scm.com   info@scm.com                                   *
 *                                                                             *
 *   Scientific publications using ADF results must be properly referenced     *
 *   See the User Manuals (or the web site) for recommended citations          *
 *   The terms and conditions of the End User License Agreement apply to       *
 *   the use of ADF, https://www.scm.com/license-terms/                        *
 *                                                                             *
 **********************  x86_64_linux_intel / intelmpi  ************************
 
 
 
  
 ADF 2019  RunTime: Sep07-2020 19:10:13  Nodes: 1  Procs: 1

 Temporary files are created in /scratch/kid_0.1028115263 (0x58465342)

 Oxygen (TZP, 1s frozen)



 ===========================
 A T T A C H E D   F I L E S
 ===========================
  
 CREATE - Data File:    TZP-O.1s
                        Oxygen (TZP, 1s frozen)
 Core Potentials:
         file : t12.rel



 ===============================
 M O D E L   P A R A M E T E R S
 ===============================
  
 DENSITY FUNCTIONAL POTENTIAL (scf)
    LDA:                               PW92                                    == Not Default ==
    Gradient Corrections:              PBEc PBEx                               == Not Default ==

 SPIN  (restricted / unrestr.)
    Molecule:                          Restricted                               

 OTHER ASPECTS
    Relativistic Corrections:          scalar (ZORA,MAPA)                      == Not Default ==

    Nuclear Charge Density Model:      Point Charge Nuclei                      
    Core Treatment:                    Frozen Orbital(s)                        

    Hyperfine or Zeeman Interaction:   ---                                      



 =====================================
 S Y M M E T R Y ,   E L E C T R O N S
 =====================================
  
 Symmetry: ATOM

 Irreducible Representations, including subspecies
 -------------------------------------------------
 S
 P:x  P:y  P:z
 D:z2  D:x2-y2  D:xy  D:xz  D:yz
 F:z3  F:z  F:xyz  F:z2x  F:z2y  F:x  F:y


 Configuration of Valence Electrons
 ==================================

          Occupation Numbers
          -------------------------------------------------
 S        2
 P        4
 D        0
 F        0
          -------------------------------------------------

 Total:   6

 Net Charge: 0 (Nuclei minus Electrons)

 Preset values for MO occupations will be applied through SCF cycle no. 1000000
 Thereafter, the program will assign electrons to MOs that are spatially
 similar to the occupied MOs in a "reference" cycle ("KeepOrbitals").
 The reference cycle is always the PREVIOUS cycle: it will evolve with
 the SCF procedure.



 ================================
 (Slater-type)  F U N C T I O N S  ***  (Basis and Fit)  ***
 ================================
  

 Atom Type    1  (O)
 ==============

 Valence Basis Sets:   8
 -----------------------
   1 S    7.360000
   2 S    1.720000
   2 S    2.880000
   2 S    7.580000
   2 P    1.120000
   2 P    2.080000
   2 P    4.080000
   3 D    2.000000

 Frozen Core Shells
 ------------------
    S:  1


 BAS: List of all Elementary Cartesian Basis Functions
 =====================================================

 The numbering in the list below (to the right of the function characteristics) is referred
 to in print-outs of MO eigenvectors and Mulliken populations in the BAS representation
 (as contrasted to the SFO representation).

 Notes:
 1. The functions are characterized by a polynomial prefactor (powers of x,y,z and r) and
    an exponential decay factor alpha.
 2. Since the basis sets are specific for an atom TYPE, the individual functions occur on
    all atoms of that type.
 3. The word 'Core' in the left margin signals that it is a Core Function (CF) : not a
    degree of freedom in the valence set, but only used to ensure orthogonalization of
    the other valence basis functions on the frozen Core Orbitals.


 (power of) X  Y  Z  R     Alpha  on Atom
            ==========     =====     ==========

 O                                    1
                                  ---------------------------------------------------------------------------
    Core    0  0  0  0     7.360      1
            0  0  0  1     1.720      2
            0  0  0  1     2.880      3
            0  0  0  1     7.580      4
            1  0  0  0     1.120      5
            0  1  0  0     1.120      6
            0  0  1  0     1.120      7
            1  0  0  0     2.080      8
            0  1  0  0     2.080      9
            0  0  1  0     2.080     10
            1  0  0  0     4.080     11
            0  1  0  0     4.080     12
            0  0  1  0     4.080     13
            2  0  0  0     2.000     14
            1  1  0  0     2.000     15
            1  0  1  0     2.000     16
            0  2  0  0     2.000     17
            0  1  1  0     2.000     18
            0  0  2  0     2.000     19

 Total number of charge fitting functions (nprimf)        82
 Total number of Cartesian basis functions (naos)         19
 Total number of Cartesian core functions  (ncos)          1



 BAS: List of all Elementary Cartesian Basis Functions
 =====================================================

 The numbering in the list below (to the right of the function characteristics) is referred
 to in print-outs of MO eigenvectors and Mulliken populations in the BAS representation
 (as contrasted to the SFO representation).

 Notes:
 1. The functions are characterized by a polynomial prefactor (powers of x,y,z and r) and
    an exponential decay factor alpha.
 2. Since the basis sets are specific for an atom TYPE, the individual functions occur on
    all atoms of that type.
 3. The word 'Core' in the left margin signals that it is a Core Function (CF) : not a
    degree of freedom in the valence set, but only used to ensure orthogonalization of
    the other valence basis functions on the frozen Core Orbitals.


 (power of) X  Y  Z  R     Alpha  on Atom
            ==========     =====     ==========

 O                                    1
                                  ---------------------------------------------------------------------------
    Core    0  0  0  0     7.360      1
            0  0  0  1     1.720      2
            0  0  0  1     2.880      3
            0  0  0  1     7.580      4
            1  0  0  0     1.120      5
            0  1  0  0     1.120      6
            0  0  1  0     1.120      7
            1  0  0  0     2.080      8
            0  1  0  0     2.080      9
            0  0  1  0     2.080     10
            1  0  0  0     4.080     11
            0  1  0  0     4.080     12
            0  0  1  0     4.080     13
            2  0  0  0     2.000     14
            1  1  0  0     2.000     15
            1  0  1  0     2.000     16
            0  2  0  0     2.000     17
            0  1  1  0     2.000     18
            0  0  2  0     2.000     19
1
 ***************************************************************************************************



                                              ***********************
                                              *  T E C H N I C A L  *
                                              ***********************
  



 =============================================================
 P A R A L L E L I Z A T I O N  and  V E C T O R I Z A T I O N
 =============================================================
  
 Nr of parallel processes:                                1
 Maximum vector length in NumInt loops:                 128



 =====================
 S C F   U P D A T E S
 =====================
  
 Max. nr. of cycles:                               300
 Convergence criterion:                              0.0000000100
   secondary criterion:                              0.0000000100

 Mix parameter (when DIIS does not apply):           0.2000000000
 Special mix parameter for the first cycle:          1.0000000000
 Mixed ADIIS+SDIIS will be used                  
    Max number of expansion vectors:                10
    Pure ADIIS when Max([F,P]) is above              0.1000000000
    Pure SDIIS when Max([F,P]) is below              0.0010000000
 Automatic ElectronSmearing (in case of problematic SCF convergence) disabled



 =================
 P R E C I S I O N  ***  (General: NumInt, NeglectFunctionTails, ...)  ***
 =================
  

 NumInt:           Target precision:                12.0000000000
 -------           Initial precision:               10.0000000000
                   Min. precision (optimization):   10.0000000000

 Neglect Functions:          Basis functions:        0.1000000000E-13
 ------------------          Fit functions:          0.1000000000E-13



 ===========================
 L I N E A R   S C A L I N G
 ===========================
  

 Cut-off radii density fit:                        0.1000000000E-97
 Overlap cut-off criterion AO matrix elements:     0.1000000000E-97
 Cut-offs for Coulomb potential and fitted density:0.1000000000E-97
 Cut-off criterion for Coulomb multipole terms:    0.1000000000E-97
 Progressive Convergence parameter:                 0.000000000    
1
 ***************************************************************************************************



                                            ***************************
                                            *  C O M P U T A T I O N  *
                                            ***************************
  

 Number of elements of the density matrix on this node (used, total):       190       190



 ===========================================
 Numerical Integration : Fuzzy Cells (Becke)
 ===========================================
  
 Becke grid quality: VERYGOOD       
  
 Lebedev angular grid order:             min:  13 max:  41
 Nr. of radial points:                   min:  68 max:  68

 Total nr. of points:         68
 Nr. of blocks:                1
 Block length:                68
 Nr. of dummy points:          0


 Test of Precision of the Numerical Integration Grid
 ===================================================

 Integral of the Total Core Density:                   1.99999999865610
 Relative Error:                                      -6.720E-10



 ========================
 Density Fitting (zlmFit)
 ========================
  
 ZlmFit Fit Quality: VERYGOOD       
  
 Max L-expansion:                        min:   0 max:   0
 Nr. of radial interpolation points:     min: 140 max: 140



 =====
 S C F  ***  ScaSCF  ***
 =====
  

 CYCLE    1
 SCF Error: norm([F,P])=      0.000000000000, max([F,P])=      0.000000000000
 orbitals (Q,E):
 ---------------
 S :1...3            ( 2.00    -5.3654)  ( 0.00    -2.2073)  ( 0.00    23.6692)
 P :1...3            ( 4.00    -5.0045)  ( 0.00    -2.0150)  ( 0.00    -0.3846)
 D :1...1            ( 0.00    -2.0410)

 CYCLE    2
 SCF Error: norm([F,P])=      4.562993374873, max([F,P])=      2.528971113813
 orbitals (Q,E):
 ---------------
 S :1...2            ( 2.00    -0.1548)  ( 0.00     1.6948)
 P :1...2            ( 4.00     0.1773)  ( 0.00     0.9552)
 D :1...1            ( 0.00     1.4649)

 CYCLE    3
  SDIIS (wt  0.000):  0.3378  0.6622
 A-DIIS (wt  1.000):  0.4814  0.5186
  DIIS coefficients:  0.4814  0.5186
 SCF Error: norm([F,P])=      2.723155250500, max([F,P])=      1.798667049295
 orbitals (Q,E):
 ---------------
 S :1...2            ( 2.00    -1.1093)  ( 0.00     0.7549)
 P :1...2            ( 4.00    -0.5518)  ( 0.00     0.2590)
 D :1...1            ( 0.00     0.8910)

 CYCLE    4
  SDIIS (wt  0.000):  0.0919  0.9081
 A-DIIS (wt  1.000):  0.0000  1.0000
  DIIS coefficients:  0.0000  1.0000
 SCF Error: norm([F,P])=      0.289027138405, max([F,P])=      0.130648623511
 orbitals (Q,E):
 ---------------
 S :1...2            ( 2.00    -0.7707)  ( 0.00     0.9912)
 P :1...2            ( 4.00    -0.2284)  ( 0.00     0.4046)
 D :1...1            ( 0.00     1.1288)

 CYCLE    5
  SDIIS (wt  0.000):  0.0260  0.6740  0.3001
 A-DIIS (wt  1.000):  0.0000  0.5764  0.4236
  DIIS coefficients:  0.0000  0.5764  0.4236
 SCF Error: norm([F,P])=      0.416615089426, max([F,P])=      0.232643669786
 orbitals (Q,E):
 ---------------
 S :1...2            ( 2.00    -0.8764)  ( 0.00     0.9107)
 P :1...2            ( 4.00    -0.3280)  ( 0.00     0.3557)
 D :1...1            ( 0.00     1.0703)

 CYCLE    6
  SDIIS (wt  0.942):  0.0005  0.0237 -0.0203  0.9960
 A-DIIS (wt  0.058):  0.0000  0.0000  0.0000  1.0000
  DIIS coefficients:  0.0005  0.0224 -0.0191  0.9962
 SCF Error: norm([F,P])=      0.013723272809, max([F,P])=      0.006719036732
 orbitals (Q,E):
 ---------------
 S :1...2            ( 2.00    -0.8830)  ( 0.00     0.9058)
 P :1...2            ( 4.00    -0.3343)  ( 0.00     0.3521)
 D :1...1            ( 0.00     1.0657)

 CYCLE    7
  SDIIS (wt  1.000): -0.0000  0.0016  0.0023  0.0424  0.9537
  DIIS coefficients: -0.0000  0.0016  0.0023  0.0424  0.9537
 SCF Error: norm([F,P])=      0.001103645928, max([F,P])=      0.000634039171
 orbitals (Q,E):
 ---------------
 S :1...2            ( 2.00    -0.8827)  ( 0.00     0.9060)
 P :1...2            ( 4.00    -0.3340)  ( 0.00     0.3523)
 D :1...1            ( 0.00     1.0659)

 CYCLE    8
  SDIIS (wt  1.000): -0.0000 -0.0001  0.0000 -0.0032  0.0268  0.9765
  DIIS coefficients: -0.0000 -0.0001  0.0000 -0.0032  0.0268  0.9765
 SCF Error: norm([F,P])=      0.000035919805, max([F,P])=      0.000020263970
 orbitals (Q,E):
 ---------------
 S :1...2            ( 2.00    -0.8827)  ( 0.00     0.9060)
 P :1...2            ( 4.00    -0.3340)  ( 0.00     0.3522)
 D :1...1            ( 0.00     1.0659)

 CYCLE    9
  SDIIS (wt  1.000): -0.0000  0.0008  0.0188  0.9804
  DIIS coefficients: -0.0000  0.0008  0.0188  0.9804
 SCF Error: norm([F,P])=      0.000000326384, max([F,P])=      0.000000183924
 orbitals (Q,E):
 ---------------
 S :1...2            ( 2.00    -0.8827)  ( 0.00     0.9060)
 P :1...2            ( 4.00    -0.3340)  ( 0.00     0.3522)
 D :1...1            ( 0.00     1.0659)

 CYCLE   10
  SDIIS (wt  1.000):  0.0000  0.0003  0.9996
  DIIS coefficients:  0.0000  0.0003  0.9996
 SCF Error: norm([F,P])=      0.000000000559, max([F,P])=      0.000000000306
 orbitals (Q,E):
 ---------------
 S :1...2            ( 2.00    -0.8827)  ( 0.00     0.9060)
 P :1...2            ( 4.00    -0.3340)  ( 0.00     0.3522)
 D :1...1            ( 0.00     1.0659)

 SCF CONVERGED

 CYCLE   11
1
 ***************************************************************************************************



                                                *******************
                                                *  R E S U L T S  *
                                                *******************
  
 *** Using FIT density in Focky
  SDIIS (wt  1.000): -0.0000  0.0143  0.9857
  DIIS coefficients: -0.0000  0.0143  0.9857
 SCF Error: norm([F,P])=      0.000000000010, max([F,P])=      0.000000000006

 Scaled ZORA Orbital Energies, per Irrep and Spin:
 =================================================
                        Occup              E (au)              E (eV)       Diff (eV) with prev. cycle
                        -----      --------------------        ------       --------------------------
 S
               1        2.000     -0.88272313143209E+00       -24.020              -9.28E-11
               2        0.000      0.90601345014671E+00        24.654
               3        0.000      0.29578810816937E+02       804.880
 P
               1        4.000     -0.33400585272070E+00        -9.089              -8.94E-11
               2        0.000      0.35224911365993E+00         9.585
               3        0.000      0.38342927625315E+01       104.336
 D
               1        0.000      0.10658965783141E+01        29.005


 Partially Occupied:
               1 P                -0.33400585272070E+00
  
 HOMO :        1 S                -0.88272313143209E+00
 LUMO :        2 P                 0.35224911365993E+00
  


 Orbital Energies, all Irreps
 ========================================

 Irrep        no.  (spin)   Occup              E (au)                E (eV)
 ---------------------------------------------------------------------------
 S             1             2.00       -0.88272313143209E+00       -24.0201
 P             1             4.00       -0.33400585272070E+00        -9.0888
 P             2             0.00        0.35224911365993E+00         9.5852
 S             2             0.00        0.90601345014671E+00        24.6539
 D             1             0.00        0.10658965783141E+01        29.0045
 P             3             0.00        0.38342927625315E+01       104.3364
 S             3             0.00        0.29578810816937E+02       804.8804


 Scaled ZORA Orbital Energies of the Core Orbitals:
 ==================================================

 (Note that the atoms are grouped by atomtype, see the labels, and may hence NOT be in input order)

 AtomType  Orbital  Atom                   E (au)                        E (eV)
 --------  -------  ----           --------------------        ----------------
 O           1S        1          -0.18925919758629E+02                -515.000



 =======================================
 M U L L I K E N   P O P U L A T I O N S
 =======================================
  
 The survey below gives for each atom:
 a) the total charge (Z minus electrons)
 b) the net spin polarization (nr of electrons spin-A minus spin-B)
 c) for each spin the atomic electron valence density (integrated) per L-value.

 Atom              Charge    Spin density          S         P         D         F
 ----              ------    ------------       ------    ------    ------    ------
 1 O              -0.0000                       2.0000    4.0000    0.0000    0.0000

 Populations of individual BAS functions
 ----------------------------------------
 1 O            0.0005  0.9226  1.0966 -0.0196  0.3346  0.3346  0.3346  0.7512  0.7512  0.7512
                0.2476  0.2476  0.2476  0.0000  0.0000  0.0000  0.0000  0.0000  0.0000

 Gross Charges per Atom (Z minus electrons)
 ==========================================
            -0.0000
 Net Total: -0.00000000



 =======================================================================
 Electrostatic potential at the Nuclei due to electrons and other nuclei
 =======================================================================
  
         Atom                  Potential
         ----                  ---------
     1)   O                  22.20265662
 
 
 ========================
 No memory problems found
 ========================
 
 Maximum number of active allocate calls:         389
 
 *******************************************************************************

                             A D F   E X I T
 NORMAL TERMINATION



 =================
 Timing Statistics
 =================
  
 Total Used :                     CPU=        0.45      System=        0.02     Elapsed=        0.51

 Calls  Section                     ( Mean, Percentage )
 ---------------------------------------------------------------------------------------------------
     3  ><      ................      0.00    0.89             0.00    0.00             0.00    0.91
     1  INIT    ................      0.06   14.29             0.01   50.00             0.08   15.85
     1  GEOMET  ................      0.02    3.57             0.00   25.00             0.02    4.84
     1  INPUTA  ................      0.00    0.89             0.00    0.00             0.00    0.70
     1  MAINSY  ................      0.01    2.68             0.00    0.00             0.01    2.77
     1  SYMFIT  ................      0.00    0.00             0.00    0.00             0.00    0.35
     1  CORORT  ................      0.00    0.00             0.00    0.00             0.00    0.32
     1  SYMORB  ................      0.00    0.00             0.00   25.00             0.00    0.18
     1  CLSMAT  ................      0.01    1.79             0.00    0.00             0.01    1.19
     1  ORTHON  ................      0.00    0.89             0.00    0.00             0.01    1.07
     1  GENPT   ................      0.02    3.57             0.00    0.00             0.02    3.03
     1  PTBAS   ................      0.00    0.00             0.00    0.00             0.01    1.14
    11  FOCKY   ................      0.02   54.46             0.00    0.00             0.02   52.11
    11  FOCKTR  ................      0.00    1.79             0.00    0.00             0.00    1.53
    11  SDIIS   ................      0.00    7.14             0.00    0.00             0.00    6.25
     1  COREPS  ................      0.02    3.57             0.00    0.00             0.02    3.58
     1  POPAN   ................      0.00    0.89             0.00    0.00             0.01    1.10
     1  DEBYE   ................      0.00    0.89             0.00    0.00             0.00    0.38
     1  EXIT PROCEDURE .........      0.01    2.68             0.00    0.00             0.01    2.71


 Currently Open Files (EXIT00)
 ====================

 Unit    Access Format  Status   Type       Ident (file)
 -------------------------------------------------------
   3      SEQ    FORM   TRANSP  NORMAL      LOGFILE
                                          ( logfile )

 ***************************************************************************************************
 (LOGFILE)
 <Sep07-2020> <19:10:12>  DIRAC 2019  RunTime: Sep07-2020 19:10:12  Nodes: 1  Procs: 1
 <Sep07-2020> <19:10:12>  NORMAL TERMINATION
 <Sep07-2020> <19:10:12>  END
 <Sep07-2020> <19:10:12>  ADF 2019  RunTime: Sep07-2020 19:10:12  Nodes: 1  Procs: 1
 <Sep07-2020> <19:10:12>  Hydrogen (TZP)
 <Sep07-2020> <19:10:12>  RunType   : CREATE
 <Sep07-2020> <19:10:12>  Net Charge: 0 (Nuclei minus Electrons)
 <Sep07-2020> <19:10:12>  Symmetry  : ATOM
  Coordinates
    Atom         X           Y           Z   (Angstrom)
    1.H         0.000000    0.000000    0.000000
 <Sep07-2020> <19:10:12>  >>>> CORORT
 <Sep07-2020> <19:10:12>  >>>> CLSMAT
 <Sep07-2020> <19:10:12>  >>>> ORTHON
 <Sep07-2020> <19:10:12>  >>>> GENPT
 <Sep07-2020> <19:10:12>  Block Length=  64
 <Sep07-2020> <19:10:12>  >>>> PTBAS
 <Sep07-2020> <19:10:12>  >>>> CYCLE
 <Sep07-2020> <19:10:12>              |Error|         MaxErr       Wt(A-DIIS)
 <Sep07-2020> <19:10:12>      1      0.00000000      0.00000000
 <Sep07-2020> <19:10:12>      2      0.03153787      0.03011049
 <Sep07-2020> <19:10:12>      3      0.00861799      0.00834303    100.0
 <Sep07-2020> <19:10:12>      4      0.00173235      0.00171862      0.7
 <Sep07-2020> <19:10:12>      5      0.00004367      0.00003977      0.0
 <Sep07-2020> <19:10:12>      6      0.00000238      0.00000216      0.0
 <Sep07-2020> <19:10:12>      7      0.00000001      0.00000001      0.0
 <Sep07-2020> <19:10:12>  SCF converged
 <Sep07-2020> <19:10:12>      8      0.00000000      0.00000000      0.0
 <Sep07-2020> <19:10:13>  >>>> POPAN
 <Sep07-2020> <19:10:13>  >>>> DEBYE
 <Sep07-2020> <19:10:13>  NORMAL TERMINATION
 <Sep07-2020> <19:10:13>  END
 <Sep07-2020> <19:10:13>  DIRAC 2019  RunTime: Sep07-2020 19:10:13  Nodes: 1  Procs: 1
 <Sep07-2020> <19:10:13>  NORMAL TERMINATION
 <Sep07-2020> <19:10:13>  END
 <Sep07-2020> <19:10:13>  ADF 2019  RunTime: Sep07-2020 19:10:13  Nodes: 1  Procs: 1
 <Sep07-2020> <19:10:13>  Oxygen (TZP, 1s frozen)
 <Sep07-2020> <19:10:13>  RunType   : CREATE
 <Sep07-2020> <19:10:13>  Net Charge: 0 (Nuclei minus Electrons)
 <Sep07-2020> <19:10:13>  Symmetry  : ATOM
  Coordinates
    Atom         X           Y           Z   (Angstrom)
    1.O         0.000000    0.000000    0.000000
 <Sep07-2020> <19:10:13>  >>>> CORORT
 <Sep07-2020> <19:10:13>  >>>> CLSMAT
 <Sep07-2020> <19:10:13>  >>>> ORTHON
 <Sep07-2020> <19:10:13>  >>>> GENPT
 <Sep07-2020> <19:10:13>  Block Length=  68
 <Sep07-2020> <19:10:13>  >>>> PTBAS
 <Sep07-2020> <19:10:13>  >>>> CYCLE
 <Sep07-2020> <19:10:13>              |Error|         MaxErr       Wt(A-DIIS)
 <Sep07-2020> <19:10:13>      1      0.00000000      0.00000000
 <Sep07-2020> <19:10:13>      2      4.56299337      2.52897111
 <Sep07-2020> <19:10:13>      3      2.72315525      1.79866705    100.0
 <Sep07-2020> <19:10:13>      4      0.28902714      0.13064862    100.0
 <Sep07-2020> <19:10:13>      5      0.41661509      0.23264367    100.0
 <Sep07-2020> <19:10:13>      6      0.01372327      0.00671904      5.8
 <Sep07-2020> <19:10:13>      7      0.00110365      0.00063404      0.0
 <Sep07-2020> <19:10:13>      8      0.00003592      0.00002026      0.0
 <Sep07-2020> <19:10:13>      9      0.00000033      0.00000018      0.0
 <Sep07-2020> <19:10:13>     10      0.00000000      0.00000000      0.0
 <Sep07-2020> <19:10:13>  SCF converged
 <Sep07-2020> <19:10:13>     11      0.00000000      0.00000000      0.0
 <Sep07-2020> <19:10:13>  >>>> POPAN
 <Sep07-2020> <19:10:13>  >>>> DEBYE
 <Sep07-2020> <19:10:13>  NORMAL TERMINATION
 <Sep07-2020> <19:10:13>  END

 *******************************************************************************
 *                                                                             *
 *  -------------------------------------                                      *
 *   Amsterdam Density Functional  (ADF)         2019                          *
 *  -------------------------------------                                      *
 *                                               r79301 2019-11-09             *
 *                                                                             *
 *                                                                             *
 *                            =====================                            *
 *                            |                   |                            *
 *                            |     D I R A C     |                            *
 *                            |                   |                            *
 *                            =====================                            *
 *                                                                             *
 *                                                                             *
 *   Online information and documentation:  https://www.scm.com/support/       *
 *   E-mail:  support@scm.com   info@scm.com                                   *
 *                                                                             *
 *   Scientific publications using ADF results must be properly referenced     *
 *   See the User Manuals (or the web site) for recommended citations          *
 *   The terms and conditions of the End User License Agreement apply to       *
 *   the use of ADF, https://www.scm.com/license-terms/                        *
 *                                                                             *
 **********************  x86_64_linux_intel / intelmpi  ************************
 
 
 
  
 DIRAC 2019  RunTime: Sep07-2020 19:10:13  Nodes: 1  Procs: 1

 Temporary files are created in /scratch/kid_0.429971116 (0x58465342)

1
 TUNGSTEN ATOM 4d CORE RELATIVISTIC, Point Nuc, A and c from 
 N J RN H ZN XION ANUC CLIGHT
 5000   22100.00000000197.36710137 74.00000000  0.00000000  183.950932  0.1370360E+03
  PH   PHI     EPS        DEL        DELRVR
  0.30  0.30     2500.00  0.00001000  0.00001000
 IDIRC  NC1  NDEBU NPRIN  IPUN IRCOR IWCOR
   1   300     0     0     0     0    14
   XALPHA      XLATTER      RNUC
  0.70000000  0.00000000  0.00000000 Point Charge
   XN   XL   XJ      XE          XZ      XDELL
  1.0  0.0  0.5   -2600.000       2.000     0.00000
  2.0  0.0  0.5    -425.000       2.000     0.00000
  2.0  1.0  0.5    -425.000       2.000     0.00000
  2.0  1.0  1.5    -425.000       4.000     0.00000
  3.0  0.0  0.5    -100.000       2.000     0.00000
  3.0  1.0  0.5    -100.000       2.000     0.00000
  3.0  1.0  1.5    -100.000       4.000     0.00000
  3.0  2.0  1.5     -80.000       4.000     0.00000
  3.0  2.0  2.5     -80.000       6.000     0.00000
  4.0  0.0  0.5     -22.000       2.000     0.00000
  4.0  1.0  0.5     -20.000       2.000     0.00000
  4.0  1.0  1.5     -20.000       4.000     0.00000
  4.0  2.0  1.5     -11.000       4.000     0.00000
  4.0  2.0  2.5     -11.000       6.000     0.00000
  4.0  3.0  2.5      -1.000       6.000     0.00000
  4.0  3.0  3.5      -1.000       8.000     0.00000
  5.0  0.0  0.5      -3.000       2.000     0.00000
  5.0  1.0  0.5      -2.200       2.000     0.00000
  5.0  1.0  1.5      -2.200       4.000     0.00000
  5.0  2.0  1.5      -0.500       4.000     0.00000
  5.0  2.0  2.5      -0.500       0.000     0.00000
  6.0  0.0  0.5      -0.200       2.000     0.00000
 ICORP=  0  NPCL=  0  DEMP=0.00  PEPS=0.000000
 R(1)=  0.1000000E-08 D=  0.1005080E+01 RNUC=  0.0000000E+00
 converged at cycle   63  DENSITY AVERAGING    0.1536
  MAXIMUM ERROR IN R.V(R) IS   0.78838062E-05
 Q,EY,EV,EZ,ESUM,ETOT,RHO  0.740000E+02 -0.431420E+03 -0.281568E+05 -0.403919E+05 -0.993885E+04 -0.161643E+05  0.726391E-09


 DIRAC CALCULATION
1                    TUNGSTEN ATOM 4d CORE RELATIVISTIC, Point Nuc, A and c from libtc


 EXCHANGE COEFFICIENT=  0.7000000           TAIL CORRECTION=  0.           NUCLEAR RADIUS=  0.000E+00
0                       ORBITAL    N    L    J     ELECTRONS     EIGENVALUE                DELTA OF EIGENV.

                          1S1/2  1.0  0.0  0.5     2.000       -0.2549514E+04                 0.5980248E-04
                          2S1/2  2.0  0.0  0.5     2.000       -0.4399118E+03                 0.5052420E-04
                          2P1/2  2.0  1.0  0.5     2.000       -0.4208427E+03                 0.5265062E-04
                          2P3/2  2.0  1.0  1.5     4.000       -0.3711192E+03                 0.5139441E-04
                          3S1/2  3.0  0.0  0.5     2.000       -0.1012881E+03                 0.3437035E-04
                          3P1/2  3.0  1.0  0.5     2.000       -0.9277148E+02                 0.3553128E-04
                          3P3/2  3.0  1.0  1.5     4.000       -0.8201733E+02                 0.3404634E-04
                          3D3/2  3.0  2.0  1.5     4.000       -0.6762803E+02                 0.3680712E-04
                          3D5/2  3.0  2.0  2.5     6.000       -0.6528623E+02                 0.3629511E-04
                          4S1/2  4.0  0.0  0.5     2.000       -0.2084139E+02                 0.1939427E-04
                          4P1/2  4.0  1.0  0.5     2.000       -0.1730737E+02                 0.1933978E-04
                          4P3/2  4.0  1.0  1.5     4.000       -0.1480597E+02                 0.1810922E-04
                          4D3/2  4.0  2.0  1.5     4.000       -0.8989319E+01                 0.1779394E-04
                          4D5/2  4.0  2.0  2.5     6.000       -0.8528007E+01                 0.1741170E-04
                          4F5/2  4.0  3.0  2.5     6.000       -0.1237480E+01                 0.1544089E-04
                          4F7/2  4.0  3.0  3.5     8.000       -0.1154634E+01                 0.1522033E-04
                          5S1/2  5.0  0.0  0.5     2.000       -0.2863514E+01                 0.7979521E-05
                          5P1/2  5.0  1.0  0.5     2.000       -0.1813289E+01                 0.7246225E-05
                          5P3/2  5.0  1.0  1.5     4.000       -0.1448762E+01                 0.6602120E-05
                          5D3/2  5.0  2.0  1.5     4.000       -0.1486933E+00                 0.3973088E-05
                          5D5/2  5.0  2.0  2.5     0.000       -0.1223153E+00                 0.3735081E-05
                          6S1/2  6.0  0.0  0.5     2.000       -0.1847434E+00                 0.1808440E-05


                                        NUCLEAR CHARGE=   74.000000
                            INTEGRAL OF CHARGE DENSITY=   74.000000
                           SUM OF THE ORBITAL ENERGIES=  -9938.8529
                                          TOTAL ENERGY= -16164.2530
                                        KINETIC ENERGY=  18217.9700
                             NUCLEAR ATTRACTION ENERGY= -40391.9132
                             ELECTRON REPULSION ENERGY=   6333.2551
                                       EXCHANGE ENERGY=   -323.5649

 *******************************************************************************

                             D I R A C   E X I T
 NORMAL TERMINATION



 =================
 Timing Statistics
 =================
  
 Total Used :                     CPU=        0.68      System=        0.01     Elapsed=        0.69

 Calls  Section                     ( Mean, Percentage )
 ---------------------------------------------------------------------------------------------------
     2  ><      ................      0.00    0.00             0.00    0.00             0.00    0.00
     1  EXIT PROCEDURE .........      0.68  100.00             0.01  100.00             0.69  100.00


 Currently Open Files (EXIT00)
 ====================

 Unit    Access Format  Status   Type       Ident (file)
 -------------------------------------------------------
   3      SEQ    FORM   TRANSP  NORMAL      LOGFILE
                                          ( logfile )
 
Create W   file=TZP-W.4d
XC
  GGA PBE
End
relativistic ZORA
Corepotentials t12.rel
End

 *******************************************************************************
 *                                                                             *
 *  -------------------------------------                                      *
 *   Amsterdam Density Functional  (ADF)         2019                          *
 *  -------------------------------------                                      *
 *                                               r79301 2019-11-09             *
 *                                                                             *
 *                                                                             *
 *                              =================                              *
 *                              |               |                              *
 *                              |     A D F     |                              *
 *                              |               |                              *
 *                              =================                              *
 *                                                                             *
 *                                                                             *
 *   Online information and documentation:  https://www.scm.com/support/       *
 *   E-mail:  support@scm.com   info@scm.com                                   *
 *                                                                             *
 *   Scientific publications using ADF results must be properly referenced     *
 *   See the User Manuals (or the web site) for recommended citations          *
 *   The terms and conditions of the End User License Agreement apply to       *
 *   the use of ADF, https://www.scm.com/license-terms/                        *
 *                                                                             *
 **********************  x86_64_linux_intel / intelmpi  ************************
 
 
 
  
 ADF 2019  RunTime: Sep07-2020 19:10:14  Nodes: 1  Procs: 1

 Temporary files are created in /scratch/kid_0.965820663 (0x58465342)

 Tungsten (TZP, 4d frozen)



 ===========================
 A T T A C H E D   F I L E S
 ===========================
  
 CREATE - Data File:    TZP-W.4d
                        Tungsten (TZP, 4d frozen)
 Core Potentials:
         file : t12.rel



 ===============================
 M O D E L   P A R A M E T E R S
 ===============================
  
 DENSITY FUNCTIONAL POTENTIAL (scf)
    LDA:                               PW92                                    == Not Default ==
    Gradient Corrections:              PBEc PBEx                               == Not Default ==

 SPIN  (restricted / unrestr.)
    Molecule:                          Restricted                               

 OTHER ASPECTS
    Relativistic Corrections:          scalar (ZORA,MAPA)                      == Not Default ==

    Nuclear Charge Density Model:      Point Charge Nuclei                      
    Core Treatment:                    Frozen Orbital(s)                        

    Hyperfine or Zeeman Interaction:   ---                                      



 =====================================
 S Y M M E T R Y ,   E L E C T R O N S
 =====================================
  
 Symmetry: ATOM

 Irreducible Representations, including subspecies
 -------------------------------------------------
 S
 P:x  P:y  P:z
 D:z2  D:x2-y2  D:xy  D:xz  D:yz
 F:z3  F:z  F:xyz  F:z2x  F:z2y  F:x  F:y


 Configuration of Valence Electrons
 ==================================

          Occupation Numbers
          -------------------------------------------------
 S        2*2
 P        6
 D        4
 F        14
          -------------------------------------------------

 Total:   28

 Net Charge: 0 (Nuclei minus Electrons)

 Preset values for MO occupations will be applied through SCF cycle no. 1000000
 Thereafter, the program will assign electrons to MOs that are spatially
 similar to the occupied MOs in a "reference" cycle ("KeepOrbitals").
 The reference cycle is always the PREVIOUS cycle: it will evolve with
 the SCF procedure.



 ================================
 (Slater-type)  F U N C T I O N S  ***  (Basis and Fit)  ***
 ================================
  

 Atom Type    1  (W)
 ==============

 Valence Basis Sets:  25
 -----------------------
   1 S   52.000000
   2 S   33.250000
   3 S   19.100000
   4 S   11.650000
   2 P   36.850000
   3 P   16.500000
   4 P   11.550000
   3 D   20.100000
   4 D   10.300000
   1 S  163.900000
   5 S    6.050000
   5 S    3.950000
   6 S    2.850000
   6 S    1.800000
   6 S    1.140000
   5 P    5.900000
   5 P    4.000000
   5 P    2.700000
   5 D    4.150000
   5 D    2.250000
   5 D    1.200000
   4 F   13.550000
   4 F    7.050000
   4 F    3.550000
   6 P    1.800000

 Frozen Core Shells
 ------------------
    S:  4
    P:  3
    D:  2


 BAS: List of all Elementary Cartesian Basis Functions
 =====================================================

 The numbering in the list below (to the right of the function characteristics) is referred
 to in print-outs of MO eigenvectors and Mulliken populations in the BAS representation
 (as contrasted to the SFO representation).

 Notes:
 1. The functions are characterized by a polynomial prefactor (powers of x,y,z and r) and
    an exponential decay factor alpha.
 2. Since the basis sets are specific for an atom TYPE, the individual functions occur on
    all atoms of that type.
 3. The word 'Core' in the left margin signals that it is a Core Function (CF) : not a
    degree of freedom in the valence set, but only used to ensure orthogonalization of
    the other valence basis functions on the frozen Core Orbitals.


 (power of) X  Y  Z  R     Alpha  on Atom
            ==========     =====     ==========

 W                                    1
                                  ---------------------------------------------------------------------------
    Core    0  0  0  0    52.000      1
    Core    0  0  0  1    33.250      2
    Core    0  0  0  2    19.100      3
    Core    0  0  0  3    11.650      4
    Core    1  0  0  0    36.850      5
    Core    0  1  0  0    36.850      6
    Core    0  0  1  0    36.850      7
    Core    1  0  0  1    16.500      8
    Core    0  1  0  1    16.500      9
    Core    0  0  1  1    16.500     10
    Core    1  0  0  2    11.550     11
    Core    0  1  0  2    11.550     12
    Core    0  0  1  2    11.550     13
    Core    2  0  0  0    20.100     14
    Core    1  1  0  0    20.100     15
    Core    1  0  1  0    20.100     16
    Core    0  2  0  0    20.100     17
    Core    0  1  1  0    20.100     18
    Core    0  0  2  0    20.100     19
    Core    2  0  0  1    10.300     20
    Core    1  1  0  1    10.300     21
    Core    1  0  1  1    10.300     22
    Core    0  2  0  1    10.300     23
    Core    0  1  1  1    10.300     24
    Core    0  0  2  1    10.300     25
            0  0  0  0   163.900     26
            0  0  0  4     6.050     27
            0  0  0  4     3.950     28
            0  0  0  5     2.850     29
            0  0  0  5     1.800     30
            0  0  0  5     1.140     31
            1  0  0  3     5.900     32
            0  1  0  3     5.900     33
            0  0  1  3     5.900     34
            1  0  0  3     4.000     35
            0  1  0  3     4.000     36
            0  0  1  3     4.000     37
            1  0  0  3     2.700     38
            0  1  0  3     2.700     39
            0  0  1  3     2.700     40
            2  0  0  2     4.150     41
            1  1  0  2     4.150     42
            1  0  1  2     4.150     43
            0  2  0  2     4.150     44
            0  1  1  2     4.150     45
            0  0  2  2     4.150     46
            2  0  0  2     2.250     47
            1  1  0  2     2.250     48
            1  0  1  2     2.250     49
            0  2  0  2     2.250     50
            0  1  1  2     2.250     51
            0  0  2  2     2.250     52
            2  0  0  2     1.200     53
            1  1  0  2     1.200     54
            1  0  1  2     1.200     55
            0  2  0  2     1.200     56
            0  1  1  2     1.200     57
            0  0  2  2     1.200     58
            3  0  0  0    13.550     59
            2  1  0  0    13.550     60
            2  0  1  0    13.550     61
            1  2  0  0    13.550     62
            1  1  1  0    13.550     63
            1  0  2  0    13.550     64
            0  3  0  0    13.550     65
            0  2  1  0    13.550     66
            0  1  2  0    13.550     67
            0  0  3  0    13.550     68
            3  0  0  0     7.050     69
            2  1  0  0     7.050     70
            2  0  1  0     7.050     71
            1  2  0  0     7.050     72
            1  1  1  0     7.050     73
            1  0  2  0     7.050     74
            0  3  0  0     7.050     75
            0  2  1  0     7.050     76
            0  1  2  0     7.050     77
            0  0  3  0     7.050     78
            3  0  0  0     3.550     79
            2  1  0  0     3.550     80
            2  0  1  0     3.550     81
            1  2  0  0     3.550     82
            1  1  1  0     3.550     83
            1  0  2  0     3.550     84
            0  3  0  0     3.550     85
            0  2  1  0     3.550     86
            0  1  2  0     3.550     87
            0  0  3  0     3.550     88
            1  0  0  4     1.800     89
            0  1  0  4     1.800     90
            0  0  1  4     1.800     91

 Total number of charge fitting functions (nprimf)       329
 Total number of Cartesian basis functions (naos)         91
 Total number of Cartesian core functions  (ncos)         25



 BAS: List of all Elementary Cartesian Basis Functions
 =====================================================

 The numbering in the list below (to the right of the function characteristics) is referred
 to in print-outs of MO eigenvectors and Mulliken populations in the BAS representation
 (as contrasted to the SFO representation).

 Notes:
 1. The functions are characterized by a polynomial prefactor (powers of x,y,z and r) and
    an exponential decay factor alpha.
 2. Since the basis sets are specific for an atom TYPE, the individual functions occur on
    all atoms of that type.
 3. The word 'Core' in the left margin signals that it is a Core Function (CF) : not a
    degree of freedom in the valence set, but only used to ensure orthogonalization of
    the other valence basis functions on the frozen Core Orbitals.


 (power of) X  Y  Z  R     Alpha  on Atom
            ==========     =====     ==========

 W                                    1
                                  ---------------------------------------------------------------------------
    Core    0  0  0  0    52.000      1
    Core    0  0  0  1    33.250      2
    Core    0  0  0  2    19.100      3
    Core    0  0  0  3    11.650      4
    Core    1  0  0  0    36.850      5
    Core    0  1  0  0    36.850      6
    Core    0  0  1  0    36.850      7
    Core    1  0  0  1    16.500      8
    Core    0  1  0  1    16.500      9
    Core    0  0  1  1    16.500     10
    Core    1  0  0  2    11.550     11
    Core    0  1  0  2    11.550     12
    Core    0  0  1  2    11.550     13
    Core    2  0  0  0    20.100     14
    Core    1  1  0  0    20.100     15
    Core    1  0  1  0    20.100     16
    Core    0  2  0  0    20.100     17
    Core    0  1  1  0    20.100     18
    Core    0  0  2  0    20.100     19
    Core    2  0  0  1    10.300     20
    Core    1  1  0  1    10.300     21
    Core    1  0  1  1    10.300     22
    Core    0  2  0  1    10.300     23
    Core    0  1  1  1    10.300     24
    Core    0  0  2  1    10.300     25
            0  0  0  0   163.900     26
            0  0  0  4     6.050     27
            0  0  0  4     3.950     28
            0  0  0  5     2.850     29
            0  0  0  5     1.800     30
            0  0  0  5     1.140     31
            1  0  0  3     5.900     32
            0  1  0  3     5.900     33
            0  0  1  3     5.900     34
            1  0  0  3     4.000     35
            0  1  0  3     4.000     36
            0  0  1  3     4.000     37
            1  0  0  3     2.700     38
            0  1  0  3     2.700     39
            0  0  1  3     2.700     40
            2  0  0  2     4.150     41
            1  1  0  2     4.150     42
            1  0  1  2     4.150     43
            0  2  0  2     4.150     44
            0  1  1  2     4.150     45
            0  0  2  2     4.150     46
            2  0  0  2     2.250     47
            1  1  0  2     2.250     48
            1  0  1  2     2.250     49
            0  2  0  2     2.250     50
            0  1  1  2     2.250     51
            0  0  2  2     2.250     52
            2  0  0  2     1.200     53
            1  1  0  2     1.200     54
            1  0  1  2     1.200     55
            0  2  0  2     1.200     56
            0  1  1  2     1.200     57
            0  0  2  2     1.200     58
            3  0  0  0    13.550     59
            2  1  0  0    13.550     60
            2  0  1  0    13.550     61
            1  2  0  0    13.550     62
            1  1  1  0    13.550     63
            1  0  2  0    13.550     64
            0  3  0  0    13.550     65
            0  2  1  0    13.550     66
            0  1  2  0    13.550     67
            0  0  3  0    13.550     68
            3  0  0  0     7.050     69
            2  1  0  0     7.050     70
            2  0  1  0     7.050     71
            1  2  0  0     7.050     72
            1  1  1  0     7.050     73
            1  0  2  0     7.050     74
            0  3  0  0     7.050     75
            0  2  1  0     7.050     76
            0  1  2  0     7.050     77
            0  0  3  0     7.050     78
            3  0  0  0     3.550     79
            2  1  0  0     3.550     80
            2  0  1  0     3.550     81
            1  2  0  0     3.550     82
            1  1  1  0     3.550     83
[...]
 <Sep07-2020> <19:48:52>  >>>> CORORT
 <Sep07-2020> <19:48:52>  >>>> CLSMAT
 <Sep07-2020> <19:48:52>  >>>> ORTHON
 <Sep07-2020> <19:48:52>  >>>> GENPT
 <Sep07-2020> <19:48:53>  Block Length= 128
 <Sep07-2020> <19:48:53>  >>>> PTBAS
 <Sep07-2020> <19:48:54>  combining surface points...
 <Sep07-2020> <19:48:54>  combining surface points...
 <Sep07-2020> <19:48:54>  combining surface points...
 <Sep07-2020> <19:48:54>  >>>> CYCLE
 <Sep07-2020> <19:48:57>              |Error|         MaxErr       Wt(A-DIIS)
 <Sep07-2020> <19:48:57>      1      0.18164172      0.03080125
 <Sep07-2020> <19:49:00>      2      0.82030633      0.12332258    100.0
 <Sep07-2020> <19:49:01>      3      0.24678014      0.03479718    100.0
 <Sep07-2020> <19:49:03>      4      0.09366717      0.01073039      9.8
 <Sep07-2020> <19:49:05>      5      0.12487202      0.01649987    100.0
 <Sep07-2020> <19:49:07>      6      0.34652133      0.04664910    100.0
 <Sep07-2020> <19:49:09>      7      0.10804352      0.01395859    100.0
 <Sep07-2020> <19:49:11>      8      0.03464728      0.00624298      5.3
 <Sep07-2020> <19:49:13>      9      0.00854393      0.00152967      0.5
 <Sep07-2020> <19:49:15>     10      0.00315573      0.00043151      0.0
 <Sep07-2020> <19:49:16>     11      0.00041542      0.00005709      0.0
 <Sep07-2020> <19:49:18>     12      0.00018891      0.00003215      0.0
 <Sep07-2020> <19:49:20>     13      0.00010170      0.00001689      0.0
 <Sep07-2020> <19:49:21>     14      0.00005368      0.00000808      0.0
 <Sep07-2020> <19:49:23>     15      0.00001137      0.00000165      0.0
 <Sep07-2020> <19:49:24>     16      0.00001319      0.00000202      0.0
 <Sep07-2020> <19:49:26>     17      0.00000416      0.00000070      0.0
 <Sep07-2020> <19:49:26>  SCF converged
 <Sep07-2020> <19:49:28>     18      0.00000264      0.00000045      0.0
 <Sep07-2020> <19:49:28>  >>>> TOTEN
 <Sep07-2020> <19:49:29>  >>>> POPAN
 <Sep07-2020> <19:49:29>  >>>> DEBYE
 <Sep07-2020> <19:49:29>  >>>> ENGRAD
 <Sep07-2020> <19:49:33>  Old frequency:    -56.23275, new:    -16.07822
 <Sep07-2020> <19:49:33>  Geometry symmetry displacement    7 out of   12
  Coordinates in Geometry Cycle 12
    Atom         X           Y           Z   (Angstrom)
    1.W         3.140376    1.913434   11.737742
    2.W         4.607361    5.265189   11.416849
    3.W         3.364304    8.453428   12.750263
    4.O         4.799090    5.181468    9.700741
    5.O         6.193168    5.435190   12.084382
    6.O         1.554262    1.847225   12.423406
    7.O         2.993594    1.636350   10.035537
    8.O         3.577028    6.798992   11.824124
    9.O         4.769985    8.782761   13.705083
   10.O         2.017914    8.310262   13.825493
   11.O         3.139944    9.929337   11.599500
   12.O         3.868441    3.646690   12.060696
   13.O         4.215695    0.521997   12.417056
   14.H         4.004740    0.180918   13.312892
   15.H         2.223123   10.216198   11.399123
 <Sep07-2020> <19:49:33>  >>>> CORORT
 <Sep07-2020> <19:49:33>  >>>> CLSMAT
 <Sep07-2020> <19:49:33>  >>>> ORTHON
 <Sep07-2020> <19:49:33>  >>>> GENPT
 <Sep07-2020> <19:49:33>  Block Length= 128
 <Sep07-2020> <19:49:34>  >>>> PTBAS
 <Sep07-2020> <19:49:34>  combining surface points...
 <Sep07-2020> <19:49:34>  combining surface points...
 <Sep07-2020> <19:49:34>  combining surface points...
 <Sep07-2020> <19:49:34>  >>>> CYCLE
 <Sep07-2020> <19:49:38>              |Error|         MaxErr       Wt(A-DIIS)
 <Sep07-2020> <19:49:38>      1      0.17601625      0.02150539
 <Sep07-2020> <19:49:40>      2      0.82024385      0.12333846    100.0
 <Sep07-2020> <19:49:42>      3      0.24785007      0.03497952    100.0
 <Sep07-2020> <19:49:44>      4      0.09360436      0.01056343      9.7
 <Sep07-2020> <19:49:46>      5      0.12527063      0.01645016    100.0
 <Sep07-2020> <19:49:48>      6      0.34856433      0.04704610    100.0
 <Sep07-2020> <19:49:50>      7      0.10865757      0.01376224    100.0
 <Sep07-2020> <19:49:52>      8      0.03147246      0.00593792      5.0
 <Sep07-2020> <19:49:53>      9      0.00776476      0.00130236      0.3
 <Sep07-2020> <19:49:55>     10      0.00314735      0.00043442      0.0
 <Sep07-2020> <19:49:57>     11      0.00041303      0.00005777      0.0
 <Sep07-2020> <19:49:59>     12      0.00018192      0.00003016      0.0
 <Sep07-2020> <19:50:00>     13      0.00010392      0.00001755      0.0
 <Sep07-2020> <19:50:02>     14      0.00006438      0.00000987      0.0
 <Sep07-2020> <19:50:04>     15      0.00001191      0.00000155      0.0
 <Sep07-2020> <19:50:05>     16      0.00001290      0.00000197      0.0
 <Sep07-2020> <19:50:07>     17      0.00000472      0.00000085      0.0
 <Sep07-2020> <19:50:07>  SCF converged
 <Sep07-2020> <19:50:08>     18      0.00000253      0.00000040      0.0
 <Sep07-2020> <19:50:09>  >>>> TOTEN
 <Sep07-2020> <19:50:10>  >>>> POPAN
 <Sep07-2020> <19:50:10>  >>>> DEBYE
 <Sep07-2020> <19:50:10>  >>>> ENGRAD
 <Sep07-2020> <19:50:14>  Geometry symmetry displacement    8 out of   12
  Coordinates in Geometry Cycle 12
    Atom         X           Y           Z   (Angstrom)
    1.W         3.140330    1.913126   11.737604
    2.W         4.607411    5.265001   11.416867
    3.W         3.364336    8.453925   12.750461
    4.O         4.798264    5.182174    9.700612
    5.O         6.193636    5.433631   12.083775
    6.O         1.554372    1.846174   12.423563
    7.O         2.993410    1.635768   10.035456
    8.O         3.578051    6.798922   11.825755
    9.O         4.769369    8.784603   13.705768
   10.O         2.017351    8.311134   13.825016
   11.O         3.140123    9.928762   11.598278
   12.O         3.867480    3.646801   12.060196
   13.O         4.216576    0.522393   12.416889
   14.H         4.006030    0.181352   13.312837
   15.H         2.223228   10.214163   11.396130
 <Sep07-2020> <19:50:14>  >>>> CORORT
 <Sep07-2020> <19:50:14>  >>>> CLSMAT
 <Sep07-2020> <19:50:14>  >>>> ORTHON
 <Sep07-2020> <19:50:14>  >>>> GENPT
 <Sep07-2020> <19:50:14>  Block Length= 128
 <Sep07-2020> <19:50:14>  >>>> PTBAS
 <Sep07-2020> <19:50:15>  combining surface points...
 <Sep07-2020> <19:50:15>  combining surface points...
 <Sep07-2020> <19:50:15>  combining surface points...
 <Sep07-2020> <19:50:15>  >>>> CYCLE
 <Sep07-2020> <19:50:19>              |Error|         MaxErr       Wt(A-DIIS)
 <Sep07-2020> <19:50:19>      1      0.18252129      0.02150134
 <Sep07-2020> <19:50:21>      2      0.82005747      0.12323306    100.0
 <Sep07-2020> <19:50:23>      3      0.24711481      0.03483851    100.0
 <Sep07-2020> <19:50:25>      4      0.09361646      0.01066166      9.8
 <Sep07-2020> <19:50:27>      5      0.12501139      0.01645826    100.0
 <Sep07-2020> <19:50:28>      6      0.34711857      0.04669236    100.0
 <Sep07-2020> <19:50:30>      7      0.10818551      0.01384278    100.0
 <Sep07-2020> <19:50:32>      8      0.03343437      0.00613565      5.2
 <Sep07-2020> <19:50:34>      9      0.00821719      0.00144158      0.4
 <Sep07-2020> <19:50:36>     10      0.00315977      0.00043198      0.0
 <Sep07-2020> <19:50:38>     11      0.00041504      0.00005732      0.0
 <Sep07-2020> <19:50:39>     12      0.00018649      0.00003134      0.0
 <Sep07-2020> <19:50:41>     13      0.00010304      0.00001716      0.0
 <Sep07-2020> <19:50:43>     14      0.00005810      0.00000886      0.0
 <Sep07-2020> <19:50:44>     15      0.00001164      0.00000160      0.0
 <Sep07-2020> <19:50:46>     16      0.00001310      0.00000201      0.0
 <Sep07-2020> <19:50:47>     17      0.00000444      0.00000078      0.0
 <Sep07-2020> <19:50:48>  SCF converged
 <Sep07-2020> <19:50:49>     18      0.00000264      0.00000044      0.0
 <Sep07-2020> <19:50:50>  >>>> TOTEN
 <Sep07-2020> <19:50:50>  >>>> POPAN
 <Sep07-2020> <19:50:50>  >>>> DEBYE
 <Sep07-2020> <19:50:50>  >>>> ENGRAD
 <Sep07-2020> <19:50:54>  Old frequency:    -46.60590, new:     15.35591
 <Sep07-2020> <19:50:54>  Geometry symmetry displacement    9 out of   12
  Coordinates in Geometry Cycle 12
    Atom         X           Y           Z   (Angstrom)
    1.W         3.140330    1.913102   11.737582
    2.W         4.607301    5.265243   11.416965
    3.W         3.364378    8.453698   12.750306
    4.O         4.799433    5.182405    9.700853
    5.O         6.192972    5.434582   12.084998
    6.O         1.554502    1.846357   12.423868
    7.O         2.993055    1.635507   10.035505
    8.O         3.576964    6.798797   11.825026
    9.O         4.770142    8.783492   13.704846
   10.O         2.018022    8.311193   13.825670
   11.O         3.140052    9.928907   11.598638
   12.O         3.867657    3.646747   12.059845
   13.O         4.216593    0.522365   12.416839
   14.H         4.006383    0.181722   13.313019
   15.H         2.223235   10.215674   11.398108
 <Sep07-2020> <19:50:55>  >>>> CORORT
 <Sep07-2020> <19:50:55>  >>>> CLSMAT
 <Sep07-2020> <19:50:55>  >>>> ORTHON
 <Sep07-2020> <19:50:55>  >>>> GENPT
 <Sep07-2020> <19:50:55>  Block Length= 128
 <Sep07-2020> <19:50:55>  >>>> PTBAS
 <Sep07-2020> <19:50:56>  combining surface points...
 <Sep07-2020> <19:50:56>  combining surface points...
 <Sep07-2020> <19:50:56>  combining surface points...
 <Sep07-2020> <19:50:56>  >>>> CYCLE
 <Sep07-2020> <19:51:00>              |Error|         MaxErr       Wt(A-DIIS)
 <Sep07-2020> <19:51:00>      1      0.17846413      0.02314473
 <Sep07-2020> <19:51:02>      2      0.82022824      0.12336052    100.0
 <Sep07-2020> <19:51:04>      3      0.24749822      0.03489829    100.0
 <Sep07-2020> <19:51:05>      4      0.09361632      0.01061493      9.7
 <Sep07-2020> <19:51:07>      5      0.12508664      0.01645622    100.0
 <Sep07-2020> <19:51:09>      6      0.34803928      0.04696086    100.0
 <Sep07-2020> <19:51:11>      7      0.10854386      0.01383325    100.0
 <Sep07-2020> <19:51:13>      8      0.03233831      0.00603242      5.1
 <Sep07-2020> <19:51:15>      9      0.00798111      0.00137020      0.4
 <Sep07-2020> <19:51:17>     10      0.00314973      0.00043325      0.0
 <Sep07-2020> <19:51:19>     11      0.00041372      0.00005747      0.0
 <Sep07-2020> <19:51:20>     12      0.00018409      0.00003077      0.0
 <Sep07-2020> <19:51:22>     13      0.00010328      0.00001724      0.0
 <Sep07-2020> <19:51:23>     14      0.00006058      0.00000922      0.0
 <Sep07-2020> <19:51:25>     15      0.00001156      0.00000154      0.0
 <Sep07-2020> <19:51:27>     16      0.00001287      0.00000196      0.0
 <Sep07-2020> <19:51:28>     17      0.00000463      0.00000083      0.0
 <Sep07-2020> <19:51:29>  SCF converged
 <Sep07-2020> <19:51:30>     18      0.00000260      0.00000042      0.0
 <Sep07-2020> <19:51:31>  >>>> TOTEN
 <Sep07-2020> <19:51:31>  >>>> POPAN
 <Sep07-2020> <19:51:31>  >>>> DEBYE
 <Sep07-2020> <19:51:31>  >>>> ENGRAD
 <Sep07-2020> <19:51:35>  Geometry symmetry displacement   10 out of   12
  Coordinates in Geometry Cycle 12
    Atom         X           Y           Z   (Angstrom)
    1.W         3.140376    1.913459   11.737763
    2.W         4.607471    5.264946   11.416751
    3.W         3.364262    8.453655   12.750419
    4.O         4.797921    5.181238    9.700500
    5.O         6.193832    5.434239   12.083160
    6.O         1.554132    1.847041   12.423101
    7.O         2.993950    1.636610   10.035488
    8.O         3.578116    6.799117   11.824853
    9.O         4.769212    8.783872   13.706006
   10.O         2.017243    8.310203   13.824838
   11.O         3.140015    9.929192   11.599140
   12.O         3.868264    3.646744   12.061046
   13.O         4.215678    0.522025   12.417106
   14.H         4.004386    0.180549   13.312710
   15.H         2.223116   10.214687   11.397145
 <Sep07-2020> <19:51:36>  >>>> CORORT
 <Sep07-2020> <19:51:36>  >>>> CLSMAT
 <Sep07-2020> <19:51:36>  >>>> ORTHON
 <Sep07-2020> <19:51:36>  >>>> GENPT
 <Sep07-2020> <19:51:36>  Block Length= 128
 <Sep07-2020> <19:51:36>  >>>> PTBAS
 <Sep07-2020> <19:51:37>  combining surface points...
 <Sep07-2020> <19:51:37>  combining surface points...
 <Sep07-2020> <19:51:37>  combining surface points...
 <Sep07-2020> <19:51:37>  >>>> CYCLE
 <Sep07-2020> <19:51:41>              |Error|         MaxErr       Wt(A-DIIS)
 <Sep07-2020> <19:51:41>      1      0.18587198      0.03037430
 <Sep07-2020> <19:51:43>      2      0.82039707      0.12333514    100.0
 <Sep07-2020> <19:51:45>      3      0.24745018      0.03490472    100.0
 <Sep07-2020> <19:51:46>      4      0.09363849      0.01063368      9.7
 <Sep07-2020> <19:51:48>      5      0.12517108      0.01647523    100.0
 <Sep07-2020> <19:51:50>      6      0.34758885      0.04682991    100.0
 <Sep07-2020> <19:51:52>      7      0.10829615      0.01382383    100.0
 <Sep07-2020> <19:51:54>      8      0.03283638      0.00606366      5.1
 <Sep07-2020> <19:51:56>      9      0.00806994      0.00139543      0.4
 <Sep07-2020> <19:51:58>     10      0.00315254      0.00043379      0.0
 <Sep07-2020> <19:51:59>     11      0.00041372      0.00005760      0.0
 <Sep07-2020> <19:52:01>     12      0.00018458      0.00003090      0.0
 <Sep07-2020> <19:52:03>     13      0.00010333      0.00001736      0.0
 <Sep07-2020> <19:52:04>     14      0.00006025      0.00000926      0.0
 <Sep07-2020> <19:52:06>     15      0.00001198      0.00000163      0.0
 <Sep07-2020> <19:52:08>     16      0.00001321      0.00000203      0.0
 <Sep07-2020> <19:52:09>     17      0.00000447      0.00000078      0.0
 <Sep07-2020> <19:52:10>  SCF converged
 <Sep07-2020> <19:52:11>     18      0.00000264      0.00000044      0.0
 <Sep07-2020> <19:52:12>  >>>> TOTEN
 <Sep07-2020> <19:52:12>  >>>> POPAN
 <Sep07-2020> <19:52:12>  >>>> DEBYE
 <Sep07-2020> <19:52:12>  >>>> ENGRAD
 <Sep07-2020> <19:52:16>  Old frequency:    -40.38786, new:     67.72828
 <Sep07-2020> <19:52:16>  Geometry symmetry displacement   11 out of   12
  Coordinates in Geometry Cycle 12
    Atom         X           Y           Z   (Angstrom)
    1.W         3.140494    1.913294   11.737612
    2.W         4.607085    5.265008   11.417041
    3.W         3.364438    8.453750   12.750297
    4.O         4.798111    5.181358    9.700849
    5.O         6.193198    5.434481   12.083993
    6.O         1.554232    1.846085   12.422824
    7.O         2.994298    1.636682   10.035276
    8.O         3.577218    6.798901   11.824989
    9.O         4.770045    8.783563   13.705063
   10.O         2.017926    8.311171   13.825457
   11.O         3.140254    9.928999   11.598652
   12.O         3.867667    3.646833   12.061142
   13.O         4.216421    0.522269   12.416790
   14.H         4.004961    0.180143   13.312104
   15.H         2.223452   10.215654   11.397887
 <Sep07-2020> <19:52:16>  >>>> CORORT
 <Sep07-2020> <19:52:17>  >>>> CLSMAT
 <Sep07-2020> <19:52:17>  >>>> ORTHON
 <Sep07-2020> <19:52:17>  >>>> GENPT
 <Sep07-2020> <19:52:17>  Block Length= 128
 <Sep07-2020> <19:52:17>  >>>> PTBAS
 <Sep07-2020> <19:52:18>  combining surface points...
 <Sep07-2020> <19:52:18>  combining surface points...
 <Sep07-2020> <19:52:18>  combining surface points...
 <Sep07-2020> <19:52:18>  >>>> CYCLE
 <Sep07-2020> <19:52:22>              |Error|         MaxErr       Wt(A-DIIS)
 <Sep07-2020> <19:52:22>      1      0.17510267      0.02152683
 <Sep07-2020> <19:52:24>      2      0.82004497      0.12329540    100.0
 <Sep07-2020> <19:52:25>      3      0.24739683      0.03491423    100.0
 <Sep07-2020> <19:52:27>      4      0.09360143      0.01061959      9.7
 <Sep07-2020> <19:52:29>      5      0.12502668      0.01646173    100.0
 <Sep07-2020> <19:52:31>      6      0.34801221      0.04694272    100.0
 <Sep07-2020> <19:52:33>      7      0.10857198      0.01385680    100.0
 <Sep07-2020> <19:52:35>      8      0.03237708      0.00601711      5.1
 <Sep07-2020> <19:52:37>      9      0.00797979      0.00137188      0.4
 <Sep07-2020> <19:52:38>     10      0.00314626      0.00043261      0.0
 <Sep07-2020> <19:52:40>     11      0.00041369      0.00005734      0.0
 <Sep07-2020> <19:52:42>     12      0.00018473      0.00003094      0.0
 <Sep07-2020> <19:52:44>     13      0.00010305      0.00001720      0.0
 <Sep07-2020> <19:52:45>     14      0.00005983      0.00000906      0.0
 <Sep07-2020> <19:52:47>     15      0.00001145      0.00000150      0.0
 <Sep07-2020> <19:52:48>     16      0.00001282      0.00000192      0.0
 <Sep07-2020> <19:52:50>     17      0.00000462      0.00000082      0.0
 <Sep07-2020> <19:52:50>  SCF converged
 <Sep07-2020> <19:52:52>     18      0.00000259      0.00000041      0.0
 <Sep07-2020> <19:52:52>  >>>> TOTEN
 <Sep07-2020> <19:52:53>  >>>> POPAN
 <Sep07-2020> <19:52:53>  >>>> DEBYE
 <Sep07-2020> <19:52:53>  >>>> ENGRAD
 <Sep07-2020> <19:52:57>  Geometry symmetry displacement   12 out of   12
  Coordinates in Geometry Cycle 12
    Atom         X           Y           Z   (Angstrom)
    1.W         3.140212    1.913267   11.737734
    2.W         4.607688    5.265181   11.416675
    3.W         3.364202    8.453603   12.750427
    4.O         4.799242    5.182284    9.700504
    5.O         6.193606    5.434341   12.084164
    6.O         1.554402    1.847314   12.424144
    7.O         2.992707    1.635435   10.035717
    8.O         3.577862    6.799013   11.824890
    9.O         4.769309    8.783801   13.705788
   10.O         2.017340    8.310225   13.825051
   11.O         3.139813    9.929100   11.599126
   12.O         3.868254    3.646658   12.059750
   13.O         4.215850    0.522121   12.417156
   14.H         4.005808    0.182128   13.313625
   15.H         2.222899   10.214708   11.397367
 <Sep07-2020> <19:52:57>  >>>> CORORT
 <Sep07-2020> <19:52:57>  >>>> CLSMAT
 <Sep07-2020> <19:52:57>  >>>> ORTHON
 <Sep07-2020> <19:52:57>  >>>> GENPT
 <Sep07-2020> <19:52:58>  Block Length= 128
 <Sep07-2020> <19:52:58>  >>>> PTBAS
 <Sep07-2020> <19:52:59>  combining surface points...
 <Sep07-2020> <19:52:59>  combining surface points...
 <Sep07-2020> <19:52:59>  combining surface points...
 <Sep07-2020> <19:52:59>  >>>> CYCLE
 <Sep07-2020> <19:53:02>              |Error|         MaxErr       Wt(A-DIIS)
 <Sep07-2020> <19:53:02>      1      0.18067765      0.02426098
 <Sep07-2020> <19:53:04>      2      0.82038389      0.12332363    100.0
 <Sep07-2020> <19:53:06>      3      0.24735132      0.03486650    100.0
 <Sep07-2020> <19:53:08>      4      0.09363996      0.01064678      9.7
 <Sep07-2020> <19:53:10>      5      0.12519986      0.01645881    100.0
 <Sep07-2020> <19:53:12>      6      0.34715711      0.04674641    100.0
 <Sep07-2020> <19:53:14>      7      0.10808305      0.01378745    100.0
 <Sep07-2020> <19:53:16>      8      0.03326527      0.00615972      5.2
 <Sep07-2020> <19:53:18>      9      0.00819928      0.00143309      0.4
 <Sep07-2020> <19:53:19>     10      0.00316254      0.00043299      0.0
 <Sep07-2020> <19:53:21>     11      0.00041448      0.00005752      0.0
 <Sep07-2020> <19:53:23>     12      0.00018514      0.00003103      0.0
 <Sep07-2020> <19:53:24>     13      0.00010351      0.00001723      0.0
 <Sep07-2020> <19:53:26>     14      0.00006016      0.00000917      0.0
 <Sep07-2020> <19:53:28>     15      0.00001156      0.00000155      0.0
 <Sep07-2020> <19:53:29>     16      0.00001281      0.00000197      0.0
 <Sep07-2020> <19:53:31>     17      0.00000461      0.00000083      0.0
 <Sep07-2020> <19:53:31>  SCF converged
 <Sep07-2020> <19:53:32>     18      0.00000265      0.00000044      0.0
 <Sep07-2020> <19:53:33>  >>>> TOTEN
 <Sep07-2020> <19:53:34>  >>>> POPAN
 <Sep07-2020> <19:53:34>  >>>> DEBYE
 <Sep07-2020> <19:53:34>  >>>> ENGRAD
 <Sep07-2020> <19:53:38>  Old frequency:    -37.96727, new:    115.11914
 <Sep07-2020> <19:53:38>  NOTE: Some frequencies have been re-calculated by numerical differentiation
 <Sep07-2020> <19:53:38>        Check the text output file for new values!
 <Sep07-2020> <19:53:38>  NORMAL TERMINATION
 <Sep07-2020> <19:53:38>  END
