
 *******************************************************************************
 *                                                                             *
 *  -------------------------------------                                      *
 *   Amsterdam Density Functional  (ADF)         2019                          *
 *  -------------------------------------                                      *
 *                                               r79301 2019-11-09             *
 *                                                                             *
 *                                                                             *
 *                            =====================                            *
 *                            |                   |                            *
 *                            |     D I R A C     |                            *
 *                            |                   |                            *
 *                            =====================                            *
 *                                                                             *
 *                                                                             *
 *   Online information and documentation:  https://www.scm.com/support/       *
 *   E-mail:  support@scm.com   info@scm.com                                   *
 *                                                                             *
 *   Scientific publications using ADF results must be properly referenced     *
 *   See the User Manuals (or the web site) for recommended citations          *
 *   The terms and conditions of the End User License Agreement apply to       *
 *   the use of ADF, https://www.scm.com/license-terms/                        *
 *                                                                             *
 **********************  x86_64_linux_intel / intelmpi  ************************
 
 
 
  
 DIRAC 2019  RunTime: Oct20-2020 22:31:26  Nodes: 1  Procs: 1

 Temporary files are created in /scratch/kid_0.1894504827 (0x58465342)

1
 OXYGEN ATOM 1s CORE RELATIVISTIC, Point Nuc, A and c from li
 N J RN H ZN XION ANUC CLIGHT
 5000    4100.00000000197.36710137  8.00000000  0.00000000   15.994914  0.1370360E+03
  PH   PHI     EPS        DEL        DELRVR
  0.30  0.30     2500.00  0.00001000  0.00001000
 IDIRC  NC1  NDEBU NPRIN  IPUN IRCOR IWCOR
   1   300     0     0     0     0     1
   XALPHA      XLATTER      RNUC
  0.70000000  0.00000000  0.00000000 Point Charge
   XN   XL   XJ      XE          XZ      XDELL
  1.0  0.0  0.5      -5.000       2.000     0.00000
  2.0  0.0  0.5      -1.000       2.000     0.00000
  2.0  1.0  0.5      -1.000       2.000     0.00000
  2.0  1.0  1.5      -1.000       2.000     0.00000
 ICORP=  0  NPCL=  0  DEMP=0.00  PEPS=0.000000
 R(1)=  0.1000000E-08 D=  0.1005080E+01 RNUC=  0.0000000E+00
 converged at cycle   28  DENSITY AVERAGING    0.2400
  MAXIMUM ERROR IN R.V(R) IS   0.81125670E-05
 Q,EY,EV,EZ,ESUM,ETOT,RHO  0.800000E+01 -0.101247E+02 -0.114961E+03 -0.177573E+03 -0.405053E+02 -0.743427E+02  0.414766E-14


 DIRAC CALCULATION
1                    OXYGEN ATOM 1s CORE RELATIVISTIC, Point Nuc, A and c from libtc


 EXCHANGE COEFFICIENT=  0.7000000           TAIL CORRECTION=  0.           NUCLEAR RADIUS=  0.000E+00
0                       ORBITAL    N    L    J     ELECTRONS     EIGENVALUE                DELTA OF EIGENV.

                          1S1/2  1.0  0.0  0.5     2.000       -0.1880014E+02                 0.7264358E-06
                          2S1/2  2.0  0.0  0.5     2.000       -0.8412236E+00                 0.5932752E-05
                          2P1/2  2.0  1.0  0.5     2.000       -0.3063203E+00                 0.5998471E-05
                          2P3/2  2.0  1.0  1.5     2.000       -0.3049609E+00                 0.5986971E-05


                                        NUCLEAR CHARGE=    8.000000
                            INTEGRAL OF CHARGE DENSITY=    8.000000
                           SUM OF THE ORBITAL ENERGIES=    -40.5053
                                          TOTAL ENERGY=    -74.3427
                                        KINETIC ENERGY=     74.4552
                             NUCLEAR ATTRACTION ENERGY=   -177.5730
                             ELECTRON REPULSION ENERGY=     36.3686
                                       EXCHANGE ENERGY=     -7.5935

 *******************************************************************************

                             D I R A C   E X I T
 NORMAL TERMINATION



 =================
 Timing Statistics
 =================
  
 Total Used :                     CPU=        0.11      System=        0.00     Elapsed=        0.12

 Calls  Section                     ( Mean, Percentage )
 ---------------------------------------------------------------------------------------------------
     2  ><      ................      0.00    0.00             0.00    0.00             0.00    0.00
     1  EXIT PROCEDURE .........      0.11  100.00             0.00    0.00             0.12  100.00


 Currently Open Files (EXIT00)
 ====================

 Unit    Access Format  Status   Type       Ident (file)
 -------------------------------------------------------
   3      SEQ    FORM   TRANSP  NORMAL      LOGFILE
                                          ( logfile )
 
Create O   file=TZP-O.1s
XC
  GGA PBE
End
relativistic ZORA
Corepotentials t12.rel
End

 *******************************************************************************
 *                                                                             *
 *  -------------------------------------                                      *
 *   Amsterdam Density Functional  (ADF)         2019                          *
 *  -------------------------------------                                      *
 *                                               r79301 2019-11-09             *
 *                                                                             *
 *                                                                             *
 *                              =================                              *
 *                              |               |                              *
 *                              |     A D F     |                              *
 *                              |               |                              *
 *                              =================                              *
 *                                                                             *
 *                                                                             *
 *   Online information and documentation:  https://www.scm.com/support/       *
 *   E-mail:  support@scm.com   info@scm.com                                   *
 *                                                                             *
 *   Scientific publications using ADF results must be properly referenced     *
 *   See the User Manuals (or the web site) for recommended citations          *
 *   The terms and conditions of the End User License Agreement apply to       *
 *   the use of ADF, https://www.scm.com/license-terms/                        *
 *                                                                             *
 **********************  x86_64_linux_intel / intelmpi  ************************
 
 
 
  
 ADF 2019  RunTime: Oct20-2020 22:31:26  Nodes: 1  Procs: 1

 Temporary files are created in /scratch/kid_0.1272177653 (0x58465342)

 Oxygen (TZP, 1s frozen)



 ===========================
 A T T A C H E D   F I L E S
 ===========================
  
 CREATE - Data File:    TZP-O.1s
                        Oxygen (TZP, 1s frozen)
 Core Potentials:
         file : t12.rel



 ===============================
 M O D E L   P A R A M E T E R S
 ===============================
  
 DENSITY FUNCTIONAL POTENTIAL (scf)
    LDA:                               PW92                                    == Not Default ==
    Gradient Corrections:              PBEc PBEx                               == Not Default ==

 SPIN  (restricted / unrestr.)
    Molecule:                          Restricted                               

 OTHER ASPECTS
    Relativistic Corrections:          scalar (ZORA,MAPA)                      == Not Default ==

    Nuclear Charge Density Model:      Point Charge Nuclei                      
    Core Treatment:                    Frozen Orbital(s)                        

    Hyperfine or Zeeman Interaction:   ---                                      



 =====================================
 S Y M M E T R Y ,   E L E C T R O N S
 =====================================
  
 Symmetry: ATOM

 Irreducible Representations, including subspecies
 -------------------------------------------------
 S
 P:x  P:y  P:z
 D:z2  D:x2-y2  D:xy  D:xz  D:yz
 F:z3  F:z  F:xyz  F:z2x  F:z2y  F:x  F:y


 Configuration of Valence Electrons
 ==================================

          Occupation Numbers
          -------------------------------------------------
 S        2
 P        4
 D        0
 F        0
          -------------------------------------------------

 Total:   6

 Net Charge: 0 (Nuclei minus Electrons)

 Preset values for MO occupations will be applied through SCF cycle no. 1000000
 Thereafter, the program will assign electrons to MOs that are spatially
 similar to the occupied MOs in a "reference" cycle ("KeepOrbitals").
 The reference cycle is always the PREVIOUS cycle: it will evolve with
 the SCF procedure.



 ================================
 (Slater-type)  F U N C T I O N S  ***  (Basis and Fit)  ***
 ================================
  

 Atom Type    1  (O)
 ==============

 Valence Basis Sets:   8
 -----------------------
   1 S    7.360000
   2 S    1.720000
   2 S    2.880000
   2 S    7.580000
   2 P    1.120000
   2 P    2.080000
   2 P    4.080000
   3 D    2.000000

 Frozen Core Shells
 ------------------
    S:  1


 BAS: List of all Elementary Cartesian Basis Functions
 =====================================================

 The numbering in the list below (to the right of the function characteristics) is referred
 to in print-outs of MO eigenvectors and Mulliken populations in the BAS representation
 (as contrasted to the SFO representation).

 Notes:
 1. The functions are characterized by a polynomial prefactor (powers of x,y,z and r) and
    an exponential decay factor alpha.
 2. Since the basis sets are specific for an atom TYPE, the individual functions occur on
    all atoms of that type.
 3. The word 'Core' in the left margin signals that it is a Core Function (CF) : not a
    degree of freedom in the valence set, but only used to ensure orthogonalization of
    the other valence basis functions on the frozen Core Orbitals.


 (power of) X  Y  Z  R     Alpha  on Atom
            ==========     =====     ==========

 O                                    1
                                  ---------------------------------------------------------------------------
    Core    0  0  0  0     7.360      1
            0  0  0  1     1.720      2
            0  0  0  1     2.880      3
            0  0  0  1     7.580      4
            1  0  0  0     1.120      5
            0  1  0  0     1.120      6
            0  0  1  0     1.120      7
            1  0  0  0     2.080      8
            0  1  0  0     2.080      9
            0  0  1  0     2.080     10
            1  0  0  0     4.080     11
            0  1  0  0     4.080     12
            0  0  1  0     4.080     13
            2  0  0  0     2.000     14
            1  1  0  0     2.000     15
            1  0  1  0     2.000     16
            0  2  0  0     2.000     17
            0  1  1  0     2.000     18
            0  0  2  0     2.000     19

 Total number of charge fitting functions (nprimf)        82
 Total number of Cartesian basis functions (naos)         19
 Total number of Cartesian core functions  (ncos)          1



 BAS: List of all Elementary Cartesian Basis Functions
 =====================================================

 The numbering in the list below (to the right of the function characteristics) is referred
 to in print-outs of MO eigenvectors and Mulliken populations in the BAS representation
 (as contrasted to the SFO representation).

 Notes:
 1. The functions are characterized by a polynomial prefactor (powers of x,y,z and r) and
    an exponential decay factor alpha.
 2. Since the basis sets are specific for an atom TYPE, the individual functions occur on
    all atoms of that type.
 3. The word 'Core' in the left margin signals that it is a Core Function (CF) : not a
    degree of freedom in the valence set, but only used to ensure orthogonalization of
    the other valence basis functions on the frozen Core Orbitals.


 (power of) X  Y  Z  R     Alpha  on Atom
            ==========     =====     ==========

 O                                    1
                                  ---------------------------------------------------------------------------
    Core    0  0  0  0     7.360      1
            0  0  0  1     1.720      2
            0  0  0  1     2.880      3
            0  0  0  1     7.580      4
            1  0  0  0     1.120      5
            0  1  0  0     1.120      6
            0  0  1  0     1.120      7
            1  0  0  0     2.080      8
            0  1  0  0     2.080      9
            0  0  1  0     2.080     10
            1  0  0  0     4.080     11
            0  1  0  0     4.080     12
            0  0  1  0     4.080     13
            2  0  0  0     2.000     14
            1  1  0  0     2.000     15
            1  0  1  0     2.000     16
            0  2  0  0     2.000     17
            0  1  1  0     2.000     18
            0  0  2  0     2.000     19
1
 ***************************************************************************************************



                                              ***********************
                                              *  T E C H N I C A L  *
                                              ***********************
  



 =============================================================
 P A R A L L E L I Z A T I O N  and  V E C T O R I Z A T I O N
 =============================================================
  
 Nr of parallel processes:                                1
 Maximum vector length in NumInt loops:                 128



 =====================
 S C F   U P D A T E S
 =====================
  
 Max. nr. of cycles:                               300
 Convergence criterion:                              0.0000000100
   secondary criterion:                              0.0000000100

 Mix parameter (when DIIS does not apply):           0.2000000000
 Special mix parameter for the first cycle:          1.0000000000
 Mixed ADIIS+SDIIS will be used                  
    Max number of expansion vectors:                10
    Pure ADIIS when Max([F,P]) is above              0.1000000000
    Pure SDIIS when Max([F,P]) is below              0.0010000000
 Automatic ElectronSmearing (in case of problematic SCF convergence) disabled



 =================
 P R E C I S I O N  ***  (General: NumInt, NeglectFunctionTails, ...)  ***
 =================
  

 NumInt:           Target precision:                12.0000000000
 -------           Initial precision:               10.0000000000
                   Min. precision (optimization):   10.0000000000

 Neglect Functions:          Basis functions:        0.1000000000E-13
 ------------------          Fit functions:          0.1000000000E-13



 ===========================
 L I N E A R   S C A L I N G
 ===========================
  

 Cut-off radii density fit:                        0.1000000000E-97
 Overlap cut-off criterion AO matrix elements:     0.1000000000E-97
 Cut-offs for Coulomb potential and fitted density:0.1000000000E-97
 Cut-off criterion for Coulomb multipole terms:    0.1000000000E-97
 Progressive Convergence parameter:                 0.000000000    
1
 ***************************************************************************************************



                                            ***************************
                                            *  C O M P U T A T I O N  *
                                            ***************************
  

 Number of elements of the density matrix on this node (used, total):       190       190



 ===========================================
 Numerical Integration : Fuzzy Cells (Becke)
 ===========================================
  
 Becke grid quality: VERYGOOD       
  
 Lebedev angular grid order:             min:  13 max:  41
 Nr. of radial points:                   min:  68 max:  68

 Total nr. of points:         68
 Nr. of blocks:                1
 Block length:                68
 Nr. of dummy points:          0


 Test of Precision of the Numerical Integration Grid
 ===================================================

 Integral of the Total Core Density:                   1.99999999865610
 Relative Error:                                      -6.720E-10



 ========================
 Density Fitting (zlmFit)
 ========================
  
 ZlmFit Fit Quality: VERYGOOD       
  
 Max L-expansion:                        min:   0 max:   0
 Nr. of radial interpolation points:     min: 140 max: 140



 =====
 S C F  ***  ScaSCF  ***
 =====
  

 CYCLE    1
 SCF Error: norm([F,P])=      0.000000000000, max([F,P])=      0.000000000000
 orbitals (Q,E):
 ---------------
 S :1...3            ( 2.00    -5.3654)  ( 0.00    -2.2073)  ( 0.00    23.6692)
 P :1...3            ( 4.00    -5.0045)  ( 0.00    -2.0150)  ( 0.00    -0.3846)
 D :1...1            ( 0.00    -2.0410)

 CYCLE    2
 SCF Error: norm([F,P])=      4.562993374873, max([F,P])=      2.528971113813
 orbitals (Q,E):
 ---------------
 S :1...2            ( 2.00    -0.1548)  ( 0.00     1.6948)
 P :1...2            ( 4.00     0.1773)  ( 0.00     0.9552)
 D :1...1            ( 0.00     1.4649)

 CYCLE    3
  SDIIS (wt  0.000):  0.3378  0.6622
 A-DIIS (wt  1.000):  0.4814  0.5186
  DIIS coefficients:  0.4814  0.5186
 SCF Error: norm([F,P])=      2.723155250500, max([F,P])=      1.798667049295
 orbitals (Q,E):
 ---------------
 S :1...2            ( 2.00    -1.1093)  ( 0.00     0.7549)
 P :1...2            ( 4.00    -0.5518)  ( 0.00     0.2590)
 D :1...1            ( 0.00     0.8910)

 CYCLE    4
  SDIIS (wt  0.000):  0.0919  0.9081
 A-DIIS (wt  1.000):  0.0000  1.0000
  DIIS coefficients:  0.0000  1.0000
 SCF Error: norm([F,P])=      0.289027138405, max([F,P])=      0.130648623511
 orbitals (Q,E):
 ---------------
 S :1...2            ( 2.00    -0.7707)  ( 0.00     0.9912)
 P :1...2            ( 4.00    -0.2284)  ( 0.00     0.4046)
 D :1...1            ( 0.00     1.1288)

 CYCLE    5
  SDIIS (wt  0.000):  0.0260  0.6740  0.3001
 A-DIIS (wt  1.000):  0.0000  0.5764  0.4236
  DIIS coefficients:  0.0000  0.5764  0.4236
 SCF Error: norm([F,P])=      0.416615089426, max([F,P])=      0.232643669786
 orbitals (Q,E):
 ---------------
 S :1...2            ( 2.00    -0.8764)  ( 0.00     0.9107)
 P :1...2            ( 4.00    -0.3280)  ( 0.00     0.3557)
 D :1...1            ( 0.00     1.0703)

 CYCLE    6
  SDIIS (wt  0.942):  0.0005  0.0237 -0.0203  0.9960
 A-DIIS (wt  0.058):  0.0000  0.0000  0.0000  1.0000
  DIIS coefficients:  0.0005  0.0224 -0.0191  0.9962
 SCF Error: norm([F,P])=      0.013723272809, max([F,P])=      0.006719036732
 orbitals (Q,E):
 ---------------
 S :1...2            ( 2.00    -0.8830)  ( 0.00     0.9058)
 P :1...2            ( 4.00    -0.3343)  ( 0.00     0.3521)
 D :1...1            ( 0.00     1.0657)

 CYCLE    7
  SDIIS (wt  1.000): -0.0000  0.0016  0.0023  0.0424  0.9537
  DIIS coefficients: -0.0000  0.0016  0.0023  0.0424  0.9537
 SCF Error: norm([F,P])=      0.001103645928, max([F,P])=      0.000634039171
 orbitals (Q,E):
 ---------------
 S :1...2            ( 2.00    -0.8827)  ( 0.00     0.9060)
 P :1...2            ( 4.00    -0.3340)  ( 0.00     0.3523)
 D :1...1            ( 0.00     1.0659)

 CYCLE    8
  SDIIS (wt  1.000): -0.0000 -0.0001  0.0000 -0.0032  0.0268  0.9765
  DIIS coefficients: -0.0000 -0.0001  0.0000 -0.0032  0.0268  0.9765
 SCF Error: norm([F,P])=      0.000035919805, max([F,P])=      0.000020263970
 orbitals (Q,E):
 ---------------
 S :1...2            ( 2.00    -0.8827)  ( 0.00     0.9060)
 P :1...2            ( 4.00    -0.3340)  ( 0.00     0.3522)
 D :1...1            ( 0.00     1.0659)

 CYCLE    9
  SDIIS (wt  1.000): -0.0000  0.0008  0.0188  0.9804
  DIIS coefficients: -0.0000  0.0008  0.0188  0.9804
 SCF Error: norm([F,P])=      0.000000326384, max([F,P])=      0.000000183924
 orbitals (Q,E):
 ---------------
 S :1...2            ( 2.00    -0.8827)  ( 0.00     0.9060)
 P :1...2            ( 4.00    -0.3340)  ( 0.00     0.3522)
 D :1...1            ( 0.00     1.0659)

 CYCLE   10
  SDIIS (wt  1.000):  0.0000  0.0003  0.9996
  DIIS coefficients:  0.0000  0.0003  0.9996
 SCF Error: norm([F,P])=      0.000000000559, max([F,P])=      0.000000000306
 orbitals (Q,E):
 ---------------
 S :1...2            ( 2.00    -0.8827)  ( 0.00     0.9060)
 P :1...2            ( 4.00    -0.3340)  ( 0.00     0.3522)
 D :1...1            ( 0.00     1.0659)

 SCF CONVERGED

 CYCLE   11
1
 ***************************************************************************************************



                                                *******************
                                                *  R E S U L T S  *
                                                *******************
  
 *** Using FIT density in Focky
  SDIIS (wt  1.000): -0.0000  0.0143  0.9857
  DIIS coefficients: -0.0000  0.0143  0.9857
 SCF Error: norm([F,P])=      0.000000000010, max([F,P])=      0.000000000006

 Scaled ZORA Orbital Energies, per Irrep and Spin:
 =================================================
                        Occup              E (au)              E (eV)       Diff (eV) with prev. cycle
                        -----      --------------------        ------       --------------------------
 S
               1        2.000     -0.88272313143209E+00       -24.020              -9.28E-11
               2        0.000      0.90601345014671E+00        24.654
               3        0.000      0.29578810816937E+02       804.880
 P
               1        4.000     -0.33400585272070E+00        -9.089              -8.94E-11
               2        0.000      0.35224911365993E+00         9.585
               3        0.000      0.38342927625315E+01       104.336
 D
               1        0.000      0.10658965783141E+01        29.005


 Partially Occupied:
               1 P                -0.33400585272070E+00
  
 HOMO :        1 S                -0.88272313143209E+00
 LUMO :        2 P                 0.35224911365993E+00
  


 Orbital Energies, all Irreps
 ========================================

 Irrep        no.  (spin)   Occup              E (au)                E (eV)
 ---------------------------------------------------------------------------
 S             1             2.00       -0.88272313143209E+00       -24.0201
 P             1             4.00       -0.33400585272070E+00        -9.0888
 P             2             0.00        0.35224911365993E+00         9.5852
 S             2             0.00        0.90601345014671E+00        24.6539
 D             1             0.00        0.10658965783141E+01        29.0045
 P             3             0.00        0.38342927625315E+01       104.3364
 S             3             0.00        0.29578810816937E+02       804.8804


 Scaled ZORA Orbital Energies of the Core Orbitals:
 ==================================================

 (Note that the atoms are grouped by atomtype, see the labels, and may hence NOT be in input order)

 AtomType  Orbital  Atom                   E (au)                        E (eV)
 --------  -------  ----           --------------------        ----------------
 O           1S        1          -0.18925919758629E+02                -515.000



 =======================================
 M U L L I K E N   P O P U L A T I O N S
 =======================================
  
 The survey below gives for each atom:
 a) the total charge (Z minus electrons)
 b) the net spin polarization (nr of electrons spin-A minus spin-B)
 c) for each spin the atomic electron valence density (integrated) per L-value.

 Atom              Charge    Spin density          S         P         D         F
 ----              ------    ------------       ------    ------    ------    ------
 1 O              -0.0000                       2.0000    4.0000    0.0000    0.0000

 Populations of individual BAS functions
 ----------------------------------------
 1 O            0.0005  0.9226  1.0966 -0.0196  0.3346  0.3346  0.3346  0.7512  0.7512  0.7512
                0.2476  0.2476  0.2476  0.0000  0.0000  0.0000  0.0000  0.0000  0.0000

 Gross Charges per Atom (Z minus electrons)
 ==========================================
            -0.0000
 Net Total: -0.00000000



 =======================================================================
 Electrostatic potential at the Nuclei due to electrons and other nuclei
 =======================================================================
  
         Atom                  Potential
         ----                  ---------
     1)   O                  22.20265662
 
 
 ========================
 No memory problems found
 ========================
 
 Maximum number of active allocate calls:         389
 
 *******************************************************************************

                             A D F   E X I T
 NORMAL TERMINATION



 =================
 Timing Statistics
 =================
  
 Total Used :                     CPU=        0.44      System=        0.01     Elapsed=        0.49

 Calls  Section                     ( Mean, Percentage )
 ---------------------------------------------------------------------------------------------------
     3  ><      ................      0.00    0.90             0.00    0.00             0.00    0.80
     1  INIT    ................      0.07   16.22             0.00    0.00             0.09   17.59
     1  GEOMET  ................      0.02    3.60             0.00    0.00             0.02    4.66
     1  INPUTA  ................      0.00    0.90             0.00    0.00             0.00    0.70
     1  MAINSY  ................      0.01    1.80             0.00    0.00             0.01    2.85
     1  SYMFIT  ................      0.00    0.90             0.00    0.00             0.00    0.33
     1  CORORT  ................      0.00    0.00             0.00    0.00             0.00    0.30
     1  SYMORB  ................      0.00    0.00             0.00    0.00             0.00    0.18
     1  CLSMAT  ................      0.01    1.80             0.00    0.00             0.01    1.18
     1  ORTHON  ................      0.00    0.90             0.00    0.00             0.01    1.06
     1  GENPT   ................      0.01    2.70             0.00    0.00             0.01    3.04
     1  PTBAS   ................      0.01    1.80             0.00    0.00             0.01    1.13
    11  FOCKY   ................      0.02   54.05             0.00   49.99             0.02   50.75
    11  FOCKTR  ................      0.00    0.00             0.00    0.00             0.00    1.54
    11  SDIIS   ................      0.00    5.41             0.00   50.01             0.00    6.11
     1  COREPS  ................      0.02    4.50             0.00    0.00             0.02    3.59
     1  POPAN   ................      0.00    0.90             0.00    0.00             0.01    1.10
     1  DEBYE   ................      0.00    0.90             0.00    0.00             0.00    0.38
     1  EXIT PROCEDURE .........      0.01    2.70             0.00    0.00             0.01    2.72


 Currently Open Files (EXIT00)
 ====================

 Unit    Access Format  Status   Type       Ident (file)
 -------------------------------------------------------
   3      SEQ    FORM   TRANSP  NORMAL      LOGFILE
                                          ( logfile )

 ***************************************************************************************************
 (LOGFILE)
 <Oct20-2020> <22:31:26>  DIRAC 2019  RunTime: Oct20-2020 22:31:26  Nodes: 1  Procs: 1
 <Oct20-2020> <22:31:26>  NORMAL TERMINATION
 <Oct20-2020> <22:31:26>  END
 <Oct20-2020> <22:31:26>  ADF 2019  RunTime: Oct20-2020 22:31:26  Nodes: 1  Procs: 1
 <Oct20-2020> <22:31:26>  Oxygen (TZP, 1s frozen)
 <Oct20-2020> <22:31:26>  RunType   : CREATE
 <Oct20-2020> <22:31:26>  Net Charge: 0 (Nuclei minus Electrons)
 <Oct20-2020> <22:31:26>  Symmetry  : ATOM
  Coordinates
    Atom         X           Y           Z   (Angstrom)
    1.O         0.000000    0.000000    0.000000
 <Oct20-2020> <22:31:26>  >>>> CORORT
 <Oct20-2020> <22:31:26>  >>>> CLSMAT
 <Oct20-2020> <22:31:26>  >>>> ORTHON
 <Oct20-2020> <22:31:26>  >>>> GENPT
 <Oct20-2020> <22:31:26>  Block Length=  68
 <Oct20-2020> <22:31:26>  >>>> PTBAS
 <Oct20-2020> <22:31:26>  >>>> CYCLE
 <Oct20-2020> <22:31:26>              |Error|         MaxErr       Wt(A-DIIS)
 <Oct20-2020> <22:31:26>      1      0.00000000      0.00000000
 <Oct20-2020> <22:31:26>      2      4.56299337      2.52897111
 <Oct20-2020> <22:31:26>      3      2.72315525      1.79866705    100.0
 <Oct20-2020> <22:31:27>      4      0.28902714      0.13064862    100.0
 <Oct20-2020> <22:31:27>      5      0.41661509      0.23264367    100.0
 <Oct20-2020> <22:31:27>      6      0.01372327      0.00671904      5.8
 <Oct20-2020> <22:31:27>      7      0.00110365      0.00063404      0.0
 <Oct20-2020> <22:31:27>      8      0.00003592      0.00002026      0.0
 <Oct20-2020> <22:31:27>      9      0.00000033      0.00000018      0.0
 <Oct20-2020> <22:31:27>     10      0.00000000      0.00000000      0.0
 <Oct20-2020> <22:31:27>  SCF converged
 <Oct20-2020> <22:31:27>     11      0.00000000      0.00000000      0.0
 <Oct20-2020> <22:31:27>  >>>> POPAN
 <Oct20-2020> <22:31:27>  >>>> DEBYE
 <Oct20-2020> <22:31:27>  NORMAL TERMINATION
 <Oct20-2020> <22:31:27>  END

 *******************************************************************************
 *                                                                             *
 *  -------------------------------------                                      *
 *   Amsterdam Density Functional  (ADF)         2019                          *
 *  -------------------------------------                                      *
 *                                               r79301 2019-11-09             *
 *                                                                             *
 *                                                                             *
 *                            =====================                            *
 *                            |                   |                            *
 *                            |     D I R A C     |                            *
 *                            |                   |                            *
 *                            =====================                            *
 *                                                                             *
 *                                                                             *
 *   Online information and documentation:  https://www.scm.com/support/       *
 *   E-mail:  support@scm.com   info@scm.com                                   *
 *                                                                             *
 *   Scientific publications using ADF results must be properly referenced     *
 *   See the User Manuals (or the web site) for recommended citations          *
 *   The terms and conditions of the End User License Agreement apply to       *
 *   the use of ADF, https://www.scm.com/license-terms/                        *
 *                                                                             *
 **********************  x86_64_linux_intel / intelmpi  ************************
 
 
 
  
 DIRAC 2019  RunTime: Oct20-2020 22:31:27  Nodes: 1  Procs: 1

 Temporary files are created in /scratch/kid_0.915436351 (0x58465342)

1
 TUNGSTEN ATOM 4d CORE RELATIVISTIC, Point Nuc, A and c from 
 N J RN H ZN XION ANUC CLIGHT
 5000   22100.00000000197.36710137 74.00000000  0.00000000  183.950932  0.1370360E+03
  PH   PHI     EPS        DEL        DELRVR
  0.30  0.30     2500.00  0.00001000  0.00001000
 IDIRC  NC1  NDEBU NPRIN  IPUN IRCOR IWCOR
   1   300     0     0     0     0    14
   XALPHA      XLATTER      RNUC
  0.70000000  0.00000000  0.00000000 Point Charge
   XN   XL   XJ      XE          XZ      XDELL
  1.0  0.0  0.5   -2600.000       2.000     0.00000
  2.0  0.0  0.5    -425.000       2.000     0.00000
  2.0  1.0  0.5    -425.000       2.000     0.00000
  2.0  1.0  1.5    -425.000       4.000     0.00000
  3.0  0.0  0.5    -100.000       2.000     0.00000
  3.0  1.0  0.5    -100.000       2.000     0.00000
  3.0  1.0  1.5    -100.000       4.000     0.00000
  3.0  2.0  1.5     -80.000       4.000     0.00000
  3.0  2.0  2.5     -80.000       6.000     0.00000
  4.0  0.0  0.5     -22.000       2.000     0.00000
  4.0  1.0  0.5     -20.000       2.000     0.00000
  4.0  1.0  1.5     -20.000       4.000     0.00000
  4.0  2.0  1.5     -11.000       4.000     0.00000
  4.0  2.0  2.5     -11.000       6.000     0.00000
  4.0  3.0  2.5      -1.000       6.000     0.00000
  4.0  3.0  3.5      -1.000       8.000     0.00000
  5.0  0.0  0.5      -3.000       2.000     0.00000
  5.0  1.0  0.5      -2.200       2.000     0.00000
  5.0  1.0  1.5      -2.200       4.000     0.00000
  5.0  2.0  1.5      -0.500       4.000     0.00000
  5.0  2.0  2.5      -0.500       0.000     0.00000
  6.0  0.0  0.5      -0.200       2.000     0.00000
 ICORP=  0  NPCL=  0  DEMP=0.00  PEPS=0.000000
 R(1)=  0.1000000E-08 D=  0.1005080E+01 RNUC=  0.0000000E+00
 converged at cycle   63  DENSITY AVERAGING    0.1536
  MAXIMUM ERROR IN R.V(R) IS   0.78838062E-05
 Q,EY,EV,EZ,ESUM,ETOT,RHO  0.740000E+02 -0.431420E+03 -0.281568E+05 -0.403919E+05 -0.993885E+04 -0.161643E+05  0.726391E-09


 DIRAC CALCULATION
1                    TUNGSTEN ATOM 4d CORE RELATIVISTIC, Point Nuc, A and c from libtc


 EXCHANGE COEFFICIENT=  0.7000000           TAIL CORRECTION=  0.           NUCLEAR RADIUS=  0.000E+00
0                       ORBITAL    N    L    J     ELECTRONS     EIGENVALUE                DELTA OF EIGENV.

                          1S1/2  1.0  0.0  0.5     2.000       -0.2549514E+04                 0.5980248E-04
                          2S1/2  2.0  0.0  0.5     2.000       -0.4399118E+03                 0.5052420E-04
                          2P1/2  2.0  1.0  0.5     2.000       -0.4208427E+03                 0.5265062E-04
                          2P3/2  2.0  1.0  1.5     4.000       -0.3711192E+03                 0.5139441E-04
                          3S1/2  3.0  0.0  0.5     2.000       -0.1012881E+03                 0.3437035E-04
                          3P1/2  3.0  1.0  0.5     2.000       -0.9277148E+02                 0.3553128E-04
                          3P3/2  3.0  1.0  1.5     4.000       -0.8201733E+02                 0.3404634E-04
                          3D3/2  3.0  2.0  1.5     4.000       -0.6762803E+02                 0.3680712E-04
                          3D5/2  3.0  2.0  2.5     6.000       -0.6528623E+02                 0.3629511E-04
                          4S1/2  4.0  0.0  0.5     2.000       -0.2084139E+02                 0.1939427E-04
                          4P1/2  4.0  1.0  0.5     2.000       -0.1730737E+02                 0.1933978E-04
                          4P3/2  4.0  1.0  1.5     4.000       -0.1480597E+02                 0.1810922E-04
                          4D3/2  4.0  2.0  1.5     4.000       -0.8989319E+01                 0.1779394E-04
                          4D5/2  4.0  2.0  2.5     6.000       -0.8528007E+01                 0.1741170E-04
                          4F5/2  4.0  3.0  2.5     6.000       -0.1237480E+01                 0.1544089E-04
                          4F7/2  4.0  3.0  3.5     8.000       -0.1154634E+01                 0.1522033E-04
                          5S1/2  5.0  0.0  0.5     2.000       -0.2863514E+01                 0.7979521E-05
                          5P1/2  5.0  1.0  0.5     2.000       -0.1813289E+01                 0.7246225E-05
                          5P3/2  5.0  1.0  1.5     4.000       -0.1448762E+01                 0.6602120E-05
                          5D3/2  5.0  2.0  1.5     4.000       -0.1486933E+00                 0.3973088E-05
                          5D5/2  5.0  2.0  2.5     0.000       -0.1223153E+00                 0.3735081E-05
                          6S1/2  6.0  0.0  0.5     2.000       -0.1847434E+00                 0.1808440E-05


                                        NUCLEAR CHARGE=   74.000000
                            INTEGRAL OF CHARGE DENSITY=   74.000000
                           SUM OF THE ORBITAL ENERGIES=  -9938.8529
                                          TOTAL ENERGY= -16164.2530
                                        KINETIC ENERGY=  18217.9700
                             NUCLEAR ATTRACTION ENERGY= -40391.9132
                             ELECTRON REPULSION ENERGY=   6333.2551
                                       EXCHANGE ENERGY=   -323.5649

 *******************************************************************************

                             D I R A C   E X I T
 NORMAL TERMINATION



 =================
 Timing Statistics
 =================
  
 Total Used :                     CPU=        0.68      System=        0.00     Elapsed=        0.69

 Calls  Section                     ( Mean, Percentage )
 ---------------------------------------------------------------------------------------------------
     2  ><      ................      0.00    0.00             0.00    0.00             0.00    0.00
     1  EXIT PROCEDURE .........      0.68  100.00             0.00  100.00             0.69  100.00


 Currently Open Files (EXIT00)
 ====================

 Unit    Access Format  Status   Type       Ident (file)
 -------------------------------------------------------
   3      SEQ    FORM   TRANSP  NORMAL      LOGFILE
                                          ( logfile )
 
Create W   file=TZP-W.4d
XC
  GGA PBE
End
relativistic ZORA
Corepotentials t12.rel
End

 *******************************************************************************
 *                                                                             *
 *  -------------------------------------                                      *
 *   Amsterdam Density Functional  (ADF)         2019                          *
 *  -------------------------------------                                      *
 *                                               r79301 2019-11-09             *
 *                                                                             *
 *                                                                             *
 *                              =================                              *
 *                              |               |                              *
 *                              |     A D F     |                              *
 *                              |               |                              *
 *                              =================                              *
 *                                                                             *
 *                                                                             *
 *   Online information and documentation:  https://www.scm.com/support/       *
 *   E-mail:  support@scm.com   info@scm.com                                   *
 *                                                                             *
 *   Scientific publications using ADF results must be properly referenced     *
 *   See the User Manuals (or the web site) for recommended citations          *
 *   The terms and conditions of the End User License Agreement apply to       *
 *   the use of ADF, https://www.scm.com/license-terms/                        *
 *                                                                             *
 **********************  x86_64_linux_intel / intelmpi  ************************
 
 
 
  
 ADF 2019  RunTime: Oct20-2020 22:31:28  Nodes: 1  Procs: 1

 Temporary files are created in /scratch/kid_0.982971560 (0x58465342)

 Tungsten (TZP, 4d frozen)



 ===========================
 A T T A C H E D   F I L E S
 ===========================
  
 CREATE - Data File:    TZP-W.4d
                        Tungsten (TZP, 4d frozen)
 Core Potentials:
         file : t12.rel



 ===============================
 M O D E L   P A R A M E T E R S
 ===============================
  
 DENSITY FUNCTIONAL POTENTIAL (scf)
    LDA:                               PW92                                    == Not Default ==
    Gradient Corrections:              PBEc PBEx                               == Not Default ==

 SPIN  (restricted / unrestr.)
    Molecule:                          Restricted                               

 OTHER ASPECTS
    Relativistic Corrections:          scalar (ZORA,MAPA)                      == Not Default ==

    Nuclear Charge Density Model:      Point Charge Nuclei                      
    Core Treatment:                    Frozen Orbital(s)                        

    Hyperfine or Zeeman Interaction:   ---                                      



 =====================================
 S Y M M E T R Y ,   E L E C T R O N S
 =====================================
  
 Symmetry: ATOM

 Irreducible Representations, including subspecies
 -------------------------------------------------
 S
 P:x  P:y  P:z
 D:z2  D:x2-y2  D:xy  D:xz  D:yz
 F:z3  F:z  F:xyz  F:z2x  F:z2y  F:x  F:y


 Configuration of Valence Electrons
 ==================================

          Occupation Numbers
          -------------------------------------------------
 S        2*2
 P        6
 D        4
 F        14
          -------------------------------------------------

 Total:   28

 Net Charge: 0 (Nuclei minus Electrons)

 Preset values for MO occupations will be applied through SCF cycle no. 1000000
 Thereafter, the program will assign electrons to MOs that are spatially
 similar to the occupied MOs in a "reference" cycle ("KeepOrbitals").
 The reference cycle is always the PREVIOUS cycle: it will evolve with
 the SCF procedure.



 ================================
 (Slater-type)  F U N C T I O N S  ***  (Basis and Fit)  ***
 ================================
  

 Atom Type    1  (W)
 ==============

 Valence Basis Sets:  25
 -----------------------
   1 S   52.000000
   2 S   33.250000
   3 S   19.100000
   4 S   11.650000
   2 P   36.850000
   3 P   16.500000
   4 P   11.550000
   3 D   20.100000
   4 D   10.300000
   1 S  163.900000
   5 S    6.050000
   5 S    3.950000
   6 S    2.850000
   6 S    1.800000
   6 S    1.140000
   5 P    5.900000
   5 P    4.000000
   5 P    2.700000
   5 D    4.150000
   5 D    2.250000
   5 D    1.200000
   4 F   13.550000
   4 F    7.050000
   4 F    3.550000
   6 P    1.800000

 Frozen Core Shells
 ------------------
    S:  4
    P:  3
    D:  2


 BAS: List of all Elementary Cartesian Basis Functions
 =====================================================

 The numbering in the list below (to the right of the function characteristics) is referred
 to in print-outs of MO eigenvectors and Mulliken populations in the BAS representation
 (as contrasted to the SFO representation).

 Notes:
 1. The functions are characterized by a polynomial prefactor (powers of x,y,z and r) and
    an exponential decay factor alpha.
 2. Since the basis sets are specific for an atom TYPE, the individual functions occur on
    all atoms of that type.
 3. The word 'Core' in the left margin signals that it is a Core Function (CF) : not a
    degree of freedom in the valence set, but only used to ensure orthogonalization of
    the other valence basis functions on the frozen Core Orbitals.


 (power of) X  Y  Z  R     Alpha  on Atom
            ==========     =====     ==========

 W                                    1
                                  ---------------------------------------------------------------------------
    Core    0  0  0  0    52.000      1
    Core    0  0  0  1    33.250      2
    Core    0  0  0  2    19.100      3
    Core    0  0  0  3    11.650      4
    Core    1  0  0  0    36.850      5
    Core    0  1  0  0    36.850      6
    Core    0  0  1  0    36.850      7
    Core    1  0  0  1    16.500      8
    Core    0  1  0  1    16.500      9
    Core    0  0  1  1    16.500     10
    Core    1  0  0  2    11.550     11
    Core    0  1  0  2    11.550     12
    Core    0  0  1  2    11.550     13
    Core    2  0  0  0    20.100     14
    Core    1  1  0  0    20.100     15
    Core    1  0  1  0    20.100     16
    Core    0  2  0  0    20.100     17
    Core    0  1  1  0    20.100     18
    Core    0  0  2  0    20.100     19
    Core    2  0  0  1    10.300     20
    Core    1  1  0  1    10.300     21
    Core    1  0  1  1    10.300     22
    Core    0  2  0  1    10.300     23
    Core    0  1  1  1    10.300     24
    Core    0  0  2  1    10.300     25
            0  0  0  0   163.900     26
            0  0  0  4     6.050     27
            0  0  0  4     3.950     28
            0  0  0  5     2.850     29
            0  0  0  5     1.800     30
            0  0  0  5     1.140     31
            1  0  0  3     5.900     32
            0  1  0  3     5.900     33
            0  0  1  3     5.900     34
            1  0  0  3     4.000     35
            0  1  0  3     4.000     36
            0  0  1  3     4.000     37
            1  0  0  3     2.700     38
            0  1  0  3     2.700     39
            0  0  1  3     2.700     40
            2  0  0  2     4.150     41
            1  1  0  2     4.150     42
            1  0  1  2     4.150     43
            0  2  0  2     4.150     44
            0  1  1  2     4.150     45
            0  0  2  2     4.150     46
            2  0  0  2     2.250     47
            1  1  0  2     2.250     48
            1  0  1  2     2.250     49
            0  2  0  2     2.250     50
            0  1  1  2     2.250     51
            0  0  2  2     2.250     52
            2  0  0  2     1.200     53
            1  1  0  2     1.200     54
            1  0  1  2     1.200     55
            0  2  0  2     1.200     56
            0  1  1  2     1.200     57
            0  0  2  2     1.200     58
            3  0  0  0    13.550     59
            2  1  0  0    13.550     60
            2  0  1  0    13.550     61
            1  2  0  0    13.550     62
            1  1  1  0    13.550     63
            1  0  2  0    13.550     64
            0  3  0  0    13.550     65
            0  2  1  0    13.550     66
            0  1  2  0    13.550     67
            0  0  3  0    13.550     68
            3  0  0  0     7.050     69
            2  1  0  0     7.050     70
            2  0  1  0     7.050     71
            1  2  0  0     7.050     72
            1  1  1  0     7.050     73
            1  0  2  0     7.050     74
            0  3  0  0     7.050     75
            0  2  1  0     7.050     76
            0  1  2  0     7.050     77
            0  0  3  0     7.050     78
            3  0  0  0     3.550     79
            2  1  0  0     3.550     80
            2  0  1  0     3.550     81
            1  2  0  0     3.550     82
            1  1  1  0     3.550     83
            1  0  2  0     3.550     84
            0  3  0  0     3.550     85
            0  2  1  0     3.550     86
            0  1  2  0     3.550     87
            0  0  3  0     3.550     88
            1  0  0  4     1.800     89
            0  1  0  4     1.800     90
            0  0  1  4     1.800     91

 Total number of charge fitting functions (nprimf)       329
 Total number of Cartesian basis functions (naos)         91
 Total number of Cartesian core functions  (ncos)         25



 BAS: List of all Elementary Cartesian Basis Functions
 =====================================================

 The numbering in the list below (to the right of the function characteristics) is referred
 to in print-outs of MO eigenvectors and Mulliken populations in the BAS representation
 (as contrasted to the SFO representation).

 Notes:
 1. The functions are characterized by a polynomial prefactor (powers of x,y,z and r) and
    an exponential decay factor alpha.
 2. Since the basis sets are specific for an atom TYPE, the individual functions occur on
    all atoms of that type.
 3. The word 'Core' in the left margin signals that it is a Core Function (CF) : not a
    degree of freedom in the valence set, but only used to ensure orthogonalization of
    the other valence basis functions on the frozen Core Orbitals.


 (power of) X  Y  Z  R     Alpha  on Atom
            ==========     =====     ==========

 W                                    1
                                  ---------------------------------------------------------------------------
    Core    0  0  0  0    52.000      1
    Core    0  0  0  1    33.250      2
    Core    0  0  0  2    19.100      3
    Core    0  0  0  3    11.650      4
    Core    1  0  0  0    36.850      5
    Core    0  1  0  0    36.850      6
    Core    0  0  1  0    36.850      7
    Core    1  0  0  1    16.500      8
    Core    0  1  0  1    16.500      9
    Core    0  0  1  1    16.500     10
    Core    1  0  0  2    11.550     11
    Core    0  1  0  2    11.550     12
    Core    0  0  1  2    11.550     13
    Core    2  0  0  0    20.100     14
    Core    1  1  0  0    20.100     15
    Core    1  0  1  0    20.100     16
    Core    0  2  0  0    20.100     17
    Core    0  1  1  0    20.100     18
    Core    0  0  2  0    20.100     19
    Core    2  0  0  1    10.300     20
    Core    1  1  0  1    10.300     21
    Core    1  0  1  1    10.300     22
    Core    0  2  0  1    10.300     23
    Core    0  1  1  1    10.300     24
    Core    0  0  2  1    10.300     25
            0  0  0  0   163.900     26
            0  0  0  4     6.050     27
            0  0  0  4     3.950     28
            0  0  0  5     2.850     29
            0  0  0  5     1.800     30
            0  0  0  5     1.140     31
            1  0  0  3     5.900     32
            0  1  0  3     5.900     33
            0  0  1  3     5.900     34
            1  0  0  3     4.000     35
            0  1  0  3     4.000     36
            0  0  1  3     4.000     37
            1  0  0  3     2.700     38
            0  1  0  3     2.700     39
            0  0  1  3     2.700     40
            2  0  0  2     4.150     41
            1  1  0  2     4.150     42
            1  0  1  2     4.150     43
            0  2  0  2     4.150     44
            0  1  1  2     4.150     45
            0  0  2  2     4.150     46
            2  0  0  2     2.250     47
            1  1  0  2     2.250     48
            1  0  1  2     2.250     49
            0  2  0  2     2.250     50
            0  1  1  2     2.250     51
            0  0  2  2     2.250     52
            2  0  0  2     1.200     53
            1  1  0  2     1.200     54
            1  0  1  2     1.200     55
            0  2  0  2     1.200     56
            0  1  1  2     1.200     57
            0  0  2  2     1.200     58
            3  0  0  0    13.550     59
            2  1  0  0    13.550     60
            2  0  1  0    13.550     61
            1  2  0  0    13.550     62
            1  1  1  0    13.550     63
            1  0  2  0    13.550     64
            0  3  0  0    13.550     65
            0  2  1  0    13.550     66
            0  1  2  0    13.550     67
            0  0  3  0    13.550     68
            3  0  0  0     7.050     69
            2  1  0  0     7.050     70
            2  0  1  0     7.050     71
            1  2  0  0     7.050     72
            1  1  1  0     7.050     73
            1  0  2  0     7.050     74
            0  3  0  0     7.050     75
            0  2  1  0     7.050     76
            0  1  2  0     7.050     77
            0  0  3  0     7.050     78
            3  0  0  0     3.550     79
            2  1  0  0     3.550     80
            2  0  1  0     3.550     81
            1  2  0  0     3.550     82
            1  1  1  0     3.550     83
            1  0  2  0     3.550     84
            0  3  0  0     3.550     85
            0  2  1  0     3.550     86
            0  1  2  0     3.550     87
            0  0  3  0     3.550     88
            1  0  0  4     1.800     89
            0  1  0  4     1.800     90
            0  0  1  4     1.800     91
1
 ***************************************************************************************************



                                              ***********************
                                              *  T E C H N I C A L  *
                                              ***********************
  



 =============================================================
 P A R A L L E L I Z A T I O N  and  V E C T O R I Z A T I O N
 =============================================================
  
 Nr of parallel processes:                                1
 Maximum vector length in NumInt loops:                 128



 =====================
 S C F   U P D A T E S
 =====================
  
 Max. nr. of cycles:                               300
 Convergence criterion:                              0.0000000100
   secondary criterion:                              0.0000000100

 Mix parameter (when DIIS does not apply):           0.2000000000
 Special mix parameter for the first cycle:          1.0000000000
 Mixed ADIIS+SDIIS will be used                  
    Max number of expansion vectors:                10
    Pure ADIIS when Max([F,P]) is above              0.1000000000
    Pure SDIIS when Max([F,P]) is below              0.0010000000
 Automatic ElectronSmearing (in case of problematic SCF convergence) disabled



 =================
 P R E C I S I O N  ***  (General: NumInt, NeglectFunctionTails, ...)  ***
 =================
  

 NumInt:           Target precision:                12.0000000000
 -------           Initial precision:               10.0000000000
                   Min. precision (optimization):   10.0000000000

 Neglect Functions:          Basis functions:        0.1000000000E-13
 ------------------          Fit functions:          0.1000000000E-13



 ===========================
 L I N E A R   S C A L I N G
 ===========================
  

 Cut-off radii density fit:                        0.1000000000E-97
 Overlap cut-off criterion AO matrix elements:     0.1000000000E-97
 Cut-offs for Coulomb potential and fitted density:0.1000000000E-97
 Cut-off criterion for Coulomb multipole terms:    0.1000000000E-97
 Progressive Convergence parameter:                 0.000000000    
1
 ***************************************************************************************************



                                            ***************************
                                            *  C O M P U T A T I O N  *
                                            ***************************
  

 Number of elements of the density matrix on this node (used, total):      4186      4186



 ===========================================
 Numerical Integration : Fuzzy Cells (Becke)
 ===========================================
  
 Becke grid quality: VERYGOOD       
  
 Lebedev angular grid order:             min:  13 max:  41
 Nr. of radial points:                   min: 145 max: 145

 Total nr. of points:        145
 Nr. of blocks:                2
 Block length:                73
 Nr. of dummy points:          1


 Test of Precision of the Numerical Integration Grid
 ===================================================

 Integral of the Total Core Density:                  46.00000002324492
 Relative Error:                                       5.053E-10



 ========================
 Density Fitting (zlmFit)
 ========================
  
 ZlmFit Fit Quality: VERYGOOD       
  
 Max L-expansion:                        min:   0 max:   0
 Nr. of radial interpolation points:     min: 340 max: 340



 =====
 S C F  ***  ScaSCF  ***
 =====
  

 CYCLE    1
 SCF Error: norm([F,P])=      0.000000000000, max([F,P])=      0.000000000000
 orbitals (Q,E):
 ---------------
 S :1...6            ( 2.00   -28.2058)  ( 2.00   -16.4725)  ( 0.00   -10.3738)  ( 0.00    -6.6321)
                     ( 0.00    -4.0998)  ( 0.00  3013.3587)
 P :1...4            ( 6.00   -26.2502)  ( 0.00   -15.6809)  ( 0.00   -10.1451)  ( 0.00    -6.3840)
 D :1...3            ( 4.00   -20.3774)  ( 0.00   -10.3968)  ( 0.00    -5.4917)
 F :1...3            (14.00   -35.0607)  ( 0.00   -19.0417)  ( 0.00   -12.0152)

 CYCLE    2
  SDIIS (wt  0.000):  1.0000  0.0000
 A-DIIS (wt  1.000):  0.1993  0.8007
  DIIS coefficients:  0.1993  0.8007
 SCF Error: norm([F,P])=     40.907082825658, max([F,P])=      9.977402120499
 orbitals (Q,E):
 ---------------
 S :1...3            ( 2.00    -4.6780)  ( 2.00    -1.8638)  ( 0.00    -0.9989)
 P :1...2            ( 6.00    -3.4915)  ( 0.00    -1.5122)
 D :1...2            ( 4.00    -2.0619)  ( 0.00    -1.0071)
 F :1...2            (14.00    -1.8107)  ( 0.00     1.1317)

 CYCLE    3
  SDIIS (wt  0.000):  0.3180  0.6820
 A-DIIS (wt  1.000):  0.2378  0.7622
  DIIS coefficients:  0.2378  0.7622
 SCF Error: norm([F,P])=     22.137766809988, max([F,P])=      7.956550621467
 orbitals (Q,E):
 ---------------
 S :1...3            ( 2.00    -3.1832)  ( 2.00    -0.0954)  ( 0.00     0.0950)
 P :1...2            ( 6.00    -1.7164)  ( 0.00     0.0796)
 D :1...2            ( 4.00    -0.0523)  ( 0.00     0.2166)
 F :1...2            (14.00    -2.9552)  ( 0.00     2.1680)

 CYCLE    4
  SDIIS (wt  0.000): -0.1470  0.2408  0.9063
 A-DIIS (wt  1.000):  0.0000  0.1960  0.8040
  DIIS coefficients:  0.0000  0.1960  0.8040
 SCF Error: norm([F,P])=     11.319258211122, max([F,P])=      3.388378774288
 orbitals (Q,E):
 ---------------
 S :1...3            ( 2.00    -2.5382)  ( 2.00    -0.1744)  ( 0.00     0.0568)
 P :1...2            ( 6.00    -1.3109)  ( 0.00     0.0041)
 D :1...2            ( 4.00    -0.0593)  ( 0.00     0.1840)
 F :1...2            (14.00    -0.4483)  ( 0.00     2.6543)

 CYCLE    5
  SDIIS (wt  0.000): -0.0453 -0.0639  0.4150  0.6941
 A-DIIS (wt  1.000):  0.0000  0.0000  0.2956  0.7044
  DIIS coefficients:  0.0000  0.0000  0.2956  0.7044
 SCF Error: norm([F,P])=      6.468352795626, max([F,P])=      2.222974642389
 orbitals (Q,E):
 ---------------
 S :1...3            ( 2.00    -3.2723)  ( 2.00    -0.3187)  ( 0.00     0.0098)
 P :1...2            ( 6.00    -1.9237)  ( 0.00    -0.1006)
 D :1...2            ( 4.00    -0.3847)  ( 0.00     0.0899)
 F :1...2            (14.00    -1.8198)  ( 0.00     1.9560)

 CYCLE    6
  SDIIS (wt  0.000): -0.0085 -0.0399  0.0839  0.4322  0.5323
 A-DIIS (wt  1.000):  0.0000  0.0000  0.0000  0.2109  0.7891
  DIIS coefficients:  0.0000  0.0000  0.0000  0.2109  0.7891
 SCF Error: norm([F,P])=      2.472496419763, max([F,P])=      0.770355067313
 orbitals (Q,E):
 ---------------
 S :1...3            ( 2.00    -2.6997)  ( 2.00    -0.1670)  ( 0.00     0.0637)
 P :1...2            ( 6.00    -1.4226)  ( 0.00     0.0144)
 D :1...2            ( 4.00    -0.0756)  ( 0.00     0.1818)
 F :1...2            (14.00    -0.9561)  ( 0.00     2.4590)

 CYCLE    7
  SDIIS (wt  0.000): -0.0027  0.0194 -0.0224 -0.1264  0.3712  0.7611
 A-DIIS (wt  1.000):  0.0000  0.0000  0.0000  0.0000  0.2987  0.7013
  DIIS coefficients:  0.0000  0.0000  0.0000  0.0000  0.2987  0.7013
 SCF Error: norm([F,P])=      1.326888571519, max([F,P])=      0.409877416513
 orbitals (Q,E):
 ---------------
 S :1...3            ( 2.00    -2.9765)  ( 2.00    -0.2356)  ( 0.00     0.0368)
 P :1...2            ( 6.00    -1.6652)  ( 0.00    -0.0389)
 D :1...2            ( 4.00    -0.2166)  ( 0.00     0.1330)
 F :1...2            (14.00    -1.3505)  ( 0.00     2.2150)

 CYCLE    8
  SDIIS (wt  0.000): -0.0001 -0.0032  0.0101  0.0022 -0.1365  0.1637  0.9637
 A-DIIS (wt  1.000):  0.0000  0.0000  0.0000  0.0000  0.0000  0.1133  0.8867
  DIIS coefficients:  0.0000  0.0000  0.0000  0.0000  0.0000  0.1133  0.8867
 SCF Error: norm([F,P])=      0.417265552811, max([F,P])=      0.123103983384
 orbitals (Q,E):
 ---------------
 S :1...3            ( 2.00    -2.8269)  ( 2.00    -0.1934)  ( 0.00     0.0514)
 P :1...2            ( 6.00    -1.5319)  ( 0.00    -0.0062)
 D :1...2            ( 4.00    -0.1328)  ( 0.00     0.1598)
 F :1...2            (14.00    -1.1429)  ( 0.00     2.3483)

 CYCLE    9
  SDIIS (wt  0.000): -0.0000 -0.0005  0.0032 -0.0055 -0.0134 -0.0769  0.3889  0.7044
 A-DIIS (wt  1.000):  0.0000  0.0000  0.0000  0.0000  0.0000  0.0000  0.4605  0.5395
  DIIS coefficients:  0.0000  0.0000  0.0000  0.0000  0.0000  0.0000  0.4605  0.5395
 SCF Error: norm([F,P])=      0.436344656895, max([F,P])=      0.135977974745
 orbitals (Q,E):
 ---------------
 S :1...3            ( 2.00    -2.8921)  ( 2.00    -0.2089)  ( 0.00     0.0455)
 P :1...2            ( 6.00    -1.5884)  ( 0.00    -0.0182)
 D :1...2            ( 4.00    -0.1653)  ( 0.00     0.1491)
 F :1...2            (14.00    -1.2444)  ( 0.00     2.2903)

 CYCLE   10
  SDIIS (wt  0.791): -0.0000 -0.0000 -0.0008  0.0050  0.0002 -0.0572  0.0662  0.2518  0.7349
 A-DIIS (wt  0.209):  0.0000  0.0000  0.0000  0.0000  0.0000  0.0000  0.0000  0.0000  1.0000
  DIIS coefficients: -0.0000 -0.0000 -0.0006  0.0039  0.0002 -0.0453  0.0524  0.1992  0.7903
 SCF Error: norm([F,P])=      0.064290018174, max([F,P])=      0.021683563602
 orbitals (Q,E):
 ---------------
 S :1...3            ( 2.00    -2.8892)  ( 2.00    -0.2088)  ( 0.00     0.0453)
 P :1...2            ( 6.00    -1.5864)  ( 0.00    -0.0182)
 D :1...2            ( 4.00    -0.1648)  ( 0.00     0.1492)
 F :1...2            (14.00    -1.2344)  ( 0.00     2.2932)

 CYCLE   11
  SDIIS (wt  0.943):  0.0000  0.0000  0.0003 -0.0019 -0.0002  0.0169 -0.0071 -0.0713  1.0633
 A-DIIS (wt  0.057):  0.0000  0.0000  0.0000  0.0000  0.0000  0.0000  0.0000  0.0000  1.0000
  DIIS coefficients:  0.0000  0.0000  0.0003 -0.0018 -0.0002  0.0159 -0.0067 -0.0673  1.0597
 SCF Error: norm([F,P])=      0.019862243149, max([F,P])=      0.006614525832
 orbitals (Q,E):
 ---------------
 S :1...3            ( 2.00    -2.8906)  ( 2.00    -0.2091)  ( 0.00     0.0452)
 P :1...2            ( 6.00    -1.5875)  ( 0.00    -0.0184)
 D :1...2            ( 4.00    -0.1654)  ( 0.00     0.1490)
 F :1...2            (14.00    -1.2376)  ( 0.00     2.2919)

 CYCLE   12
  SDIIS (wt  1.000):  0.0000 -0.0000  0.0001  0.0002 -0.0010 -0.0025  0.0027  1.0005
  DIIS coefficients:  0.0000 -0.0000  0.0001  0.0002 -0.0010 -0.0025  0.0027  1.0005
 SCF Error: norm([F,P])=      0.001704368638, max([F,P])=      0.000557703294
 orbitals (Q,E):
 ---------------
 S :1...3            ( 2.00    -2.8904)  ( 2.00    -0.2090)  ( 0.00     0.0452)
 P :1...2            ( 6.00    -1.5874)  ( 0.00    -0.0184)
 D :1...2            ( 4.00    -0.1653)  ( 0.00     0.1490)
 F :1...2            (14.00    -1.2373)  ( 0.00     2.2920)

 CYCLE   13
  SDIIS (wt  1.000): -0.0000 -0.0000 -0.0000 -0.0001  0.0001 -0.0012  0.0054  0.1443  0.8513
  DIIS coefficients: -0.0000 -0.0000 -0.0000 -0.0001  0.0001 -0.0012  0.0054  0.1443  0.8513
 SCF Error: norm([F,P])=      0.000011644128, max([F,P])=      0.000003087302
 orbitals (Q,E):
 ---------------
 S :1...3            ( 2.00    -2.8904)  ( 2.00    -0.2090)  ( 0.00     0.0452)
 P :1...2            ( 6.00    -1.5874)  ( 0.00    -0.0184)
 D :1...2            ( 4.00    -0.1653)  ( 0.00     0.1490)
 F :1...2            (14.00    -1.2373)  ( 0.00     2.2920)

 CYCLE   14
  SDIIS (wt  1.000): -0.0000 -0.0001 -0.0006 -0.0016  1.0022
  DIIS coefficients: -0.0000 -0.0001 -0.0006 -0.0016  1.0022
 SCF Error: norm([F,P])=      0.000000013756, max([F,P])=      0.000000003650
 orbitals (Q,E):
 ---------------
 S :1...3            ( 2.00    -2.8904)  ( 2.00    -0.2090)  ( 0.00     0.0452)
 P :1...2            ( 6.00    -1.5874)  ( 0.00    -0.0184)
 D :1...2            ( 4.00    -0.1653)  ( 0.00     0.1490)
 F :1...2            (14.00    -1.2373)  ( 0.00     2.2920)

 SCF CONVERGED

 CYCLE   15
1
 ***************************************************************************************************



                                                *******************
                                                *  R E S U L T S  *
                                                *******************
  
 *** Using FIT density in Focky
  SDIIS (wt  1.000): -0.0000 -0.0000 -0.0330  1.0330
  DIIS coefficients: -0.0000 -0.0000 -0.0330  1.0330
 SCF Error: norm([F,P])=      0.000000001904, max([F,P])=      0.000000000603

 Scaled ZORA Orbital Energies, per Irrep and Spin:
 =================================================
                        Occup              E (au)              E (eV)       Diff (eV) with prev. cycle
                        -----      --------------------        ------       --------------------------
 S
               1        2.000     -0.28904146058127E+01       -78.652               1.69E-08
               2        2.000     -0.20903700188629E+00        -5.688               1.07E-08
               3        0.000      0.45235059600390E-01         1.231
               4        0.000      0.56065479131102E+00        15.256
               5        0.000      0.33274541694695E+01        90.545
               6        0.000      0.30455860934223E+04     82874.614
 P
               1        6.000     -0.15873724268739E+01       -43.195               1.66E-08
               2        0.000     -0.18381804002204E-01        -0.500
               3        0.000      0.75931517673518E+00        20.662
               4        0.000      0.46642512103918E+01       126.921
 D
               1        4.000     -0.16528259673378E+00        -4.498               1.44E-08
               2        0.000      0.14901440684398E+00         4.055
               3        0.000      0.12244232958062E+01        33.318
 F
               1       14.000     -0.12372769632872E+01       -33.668               2.06E-08
               2        0.000      0.22920435821192E+01        62.370
               3        0.000      0.17401159156906E+02       473.510


 Partially Occupied:
               1 D                -0.16528259673378E+00
  
 HOMO :        2 S                -0.20903700188629E+00
 LUMO :        2 P                -0.18381804002204E-01
  


 Orbital Energies, all Irreps
 ========================================

 Irrep        no.  (spin)   Occup              E (au)                E (eV)
 ---------------------------------------------------------------------------
 S             1             2.00       -0.28904146058127E+01       -78.6522
 P             1             6.00       -0.15873724268739E+01       -43.1946
 F             1            14.00       -0.12372769632872E+01       -33.6680
 S             2             2.00       -0.20903700188629E+00        -5.6882
 D             1             4.00       -0.16528259673378E+00        -4.4976
 P             2             0.00       -0.18381804002204E-01        -0.5002
 S             3             0.00        0.45235059600390E-01         1.2309
 D             2             0.00        0.14901440684398E+00         4.0549
 S             4             0.00        0.56065479131102E+00        15.2562
 P             3             0.00        0.75931517673518E+00        20.6620
 D             3             0.00        0.12244232958062E+01        33.3183
 F             2             0.00        0.22920435821192E+01        62.3697
 S             5             0.00        0.33274541694695E+01        90.5446
 P             4             0.00        0.46642512103918E+01       126.9207
 F             3             0.00        0.17401159156906E+02       473.5096
 S             6             0.00        0.30455860934223E+04     82874.6143


 Scaled ZORA Orbital Energies of the Core Orbitals:
 ==================================================

 (Note that the atoms are grouped by atomtype, see the labels, and may hence NOT be in input order)

 AtomType  Orbital  Atom                   E (au)                        E (eV)
 --------  -------  ----           --------------------        ----------------
 W           1S        1          -0.25482138824004E+04              -69340.428
             2S        1          -0.43960984780021E+03              -11962.393
             3S        1          -0.10127263228126E+03               -2755.769
             4S        1          -0.20907119428712E+02                -568.912
             2P        1          -0.38417169137868E+03              -10453.844
             3P        1          -0.84864891065853E+02               -2309.291
             4P        1          -0.15541477299623E+02                -422.905
             3D        1          -0.66165082684733E+02               -1800.444
             4D        1          -0.87737511763508E+01                -238.746



 =======================================
 M U L L I K E N   P O P U L A T I O N S
 =======================================
  
 The survey below gives for each atom:
 a) the total charge (Z minus electrons)
 b) the net spin polarization (nr of electrons spin-A minus spin-B)
 c) for each spin the atomic electron valence density (integrated) per L-value.

 Atom              Charge    Spin density          S         P         D         F
 ----              ------    ------------       ------    ------    ------    ------
 1 W              -0.0000                       4.0000    6.0000    4.0000   14.0000

 Populations of individual BAS functions
 ----------------------------------------
 1 W           -0.0024 -0.0016  0.0017  0.0821  0.0004  0.0004  0.0004 -0.0190 -0.0190 -0.0190
                0.1070  0.1070  0.1070  0.0007  0.0011  0.0011  0.0007  0.0011  0.0007  0.0102
                0.0153  0.0153  0.0102  0.0153  0.0102  0.0002  1.3184  0.6637  0.7095  1.0512
                0.1771  0.5899  0.5899  0.5899  1.2256  1.2256  1.2256  0.0879  0.0879  0.0879
                0.2040  0.3059  0.3059  0.2040  0.3059  0.2040  0.2699  0.4048  0.4048  0.2699
                0.4048  0.2699  0.0486  0.0728  0.0728  0.0486  0.0728  0.0486  0.2159  0.4319
                0.4319  0.4319  0.5399  0.4319  0.2159  0.4319  0.4319  0.2159  0.4698  0.9397
                0.9397  0.9397  1.1746  0.9397  0.4698  0.9397  0.9397  0.4698  0.1142  0.2284
                0.2284  0.2284  0.2855  0.2284  0.1142  0.2284  0.2284  0.1142  0.0081  0.0081
                0.0081

 Gross Charges per Atom (Z minus electrons)
 ==========================================
            -0.0000
 Net Total: -0.00000000



 =======================================================================
 Electrostatic potential at the Nuclei due to electrons and other nuclei
 =======================================================================
  
         Atom                  Potential
         ----                  ---------
     1)   W                 545.46052106
 
 
 ========================
 No memory problems found
 ========================
 
 Maximum number of active allocate calls:         487
 
 *******************************************************************************

                             A D F   E X I T
 NORMAL TERMINATION



 =================
 Timing Statistics
 =================
  
 Total Used :                     CPU=        1.22      System=        0.02     Elapsed=        1.29

 Calls  Section                     ( Mean, Percentage )
 ---------------------------------------------------------------------------------------------------
     3  ><      ................      0.00    0.33             0.00    0.00             0.00    0.31
     1  INIT    ................      0.07    5.88             0.00   20.00             0.08    6.06
     1  GEOMET  ................      0.02    1.31             0.00    0.00             0.02    1.86
     1  INPUTA  ................      0.00    0.33             0.00    0.00             0.00    0.29
     1  MAINSY  ................      0.02    1.31             0.00    0.00             0.02    1.63
     1  SYMFIT  ................      0.00    0.00             0.00   20.00             0.00    0.13
     1  CORORT  ................      0.00    0.33             0.00    0.00             0.00    0.15
     1  SYMORB  ................      0.00    0.00             0.00    0.00             0.00    0.08
     1  CLSMAT  ................      0.01    0.65             0.00    0.00             0.01    0.53
     1  ORTHON  ................      0.00    0.33             0.00    0.00             0.01    0.47
     1  GENPT   ................      0.02    1.96             0.00    0.00             0.03    2.04
     1  PTBAS   ................      0.00    0.33             0.00    0.00             0.01    0.57
    15  FOCKY   ................      0.06   77.12             0.00   40.00             0.06   74.75
    15  FOCKTR  ................      0.00    0.98             0.00    0.00             0.00    1.01
    15  SDIIS   ................      0.00    2.61             0.00    0.00             0.00    3.40
     1  COREPS  ................      0.06    4.58             0.00   20.00             0.06    4.72
     1  POPAN   ................      0.00    0.33             0.00    0.00             0.01    0.51
     1  DEBYE   ................      0.00    0.33             0.00    0.00             0.00    0.19
     1  EXIT PROCEDURE .........      0.02    1.31             0.00    0.00             0.02    1.30


 Currently Open Files (EXIT00)
 ====================

 Unit    Access Format  Status   Type       Ident (file)
 -------------------------------------------------------
   3      SEQ    FORM   TRANSP  NORMAL      LOGFILE
                                          ( logfile )

 ***************************************************************************************************
 (LOGFILE)
 <Oct20-2020> <22:31:26>  DIRAC 2019  RunTime: Oct20-2020 22:31:26  Nodes: 1  Procs: 1
 <Oct20-2020> <22:31:26>  NORMAL TERMINATION
 <Oct20-2020> <22:31:26>  END
 <Oct20-2020> <22:31:26>  ADF 2019  RunTime: Oct20-2020 22:31:26  Nodes: 1  Procs: 1
 <Oct20-2020> <22:31:26>  Oxygen (TZP, 1s frozen)
 <Oct20-2020> <22:31:26>  RunType   : CREATE
 <Oct20-2020> <22:31:26>  Net Charge: 0 (Nuclei minus Electrons)
 <Oct20-2020> <22:31:26>  Symmetry  : ATOM
  Coordinates
    Atom         X           Y           Z   (Angstrom)
    1.O         0.000000    0.000000    0.000000
 <Oct20-2020> <22:31:26>  >>>> CORORT
 <Oct20-2020> <22:31:26>  >>>> CLSMAT
 <Oct20-2020> <22:31:26>  >>>> ORTHON
 <Oct20-2020> <22:31:26>  >>>> GENPT
 <Oct20-2020> <22:31:26>  Block Length=  68
 <Oct20-2020> <22:31:26>  >>>> PTBAS
 <Oct20-2020> <22:31:26>  >>>> CYCLE
 <Oct20-2020> <22:31:26>              |Error|         MaxErr       Wt(A-DIIS)
 <Oct20-2020> <22:31:26>      1      0.00000000      0.00000000
 <Oct20-2020> <22:31:26>      2      4.56299337      2.52897111
 <Oct20-2020> <22:31:26>      3      2.72315525      1.79866705    100.0
 <Oct20-2020> <22:31:27>      4      0.28902714      0.13064862    100.0
 <Oct20-2020> <22:31:27>      5      0.41661509      0.23264367    100.0
 <Oct20-2020> <22:31:27>      6      0.01372327      0.00671904      5.8
 <Oct20-2020> <22:31:27>      7      0.00110365      0.00063404      0.0
 <Oct20-2020> <22:31:27>      8      0.00003592      0.00002026      0.0
 <Oct20-2020> <22:31:27>      9      0.00000033      0.00000018      0.0
 <Oct20-2020> <22:31:27>     10      0.00000000      0.00000000      0.0
 <Oct20-2020> <22:31:27>  SCF converged
 <Oct20-2020> <22:31:27>     11      0.00000000      0.00000000      0.0
 <Oct20-2020> <22:31:27>  >>>> POPAN
 <Oct20-2020> <22:31:27>  >>>> DEBYE
 <Oct20-2020> <22:31:27>  NORMAL TERMINATION
 <Oct20-2020> <22:31:27>  END
 <Oct20-2020> <22:31:27>  DIRAC 2019  RunTime: Oct20-2020 22:31:27  Nodes: 1  Procs: 1
 <Oct20-2020> <22:31:27>  NORMAL TERMINATION
 <Oct20-2020> <22:31:27>  END
 <Oct20-2020> <22:31:28>  ADF 2019  RunTime: Oct20-2020 22:31:28  Nodes: 1  Procs: 1
 <Oct20-2020> <22:31:28>  Tungsten (TZP, 4d frozen)
 <Oct20-2020> <22:31:28>  RunType   : CREATE
 <Oct20-2020> <22:31:28>  Net Charge: 0 (Nuclei minus Electrons)
 <Oct20-2020> <22:31:28>  Symmetry  : ATOM
  Coordinates
    Atom         X           Y           Z   (Angstrom)
    1.W         0.000000    0.000000    0.000000
 <Oct20-2020> <22:31:28>  >>>> CORORT
 <Oct20-2020> <22:31:28>  >>>> CLSMAT
 <Oct20-2020> <22:31:28>  >>>> ORTHON
 <Oct20-2020> <22:31:28>  >>>> GENPT
 <Oct20-2020> <22:31:28>  Block Length=  73
 <Oct20-2020> <22:31:28>  >>>> PTBAS
 <Oct20-2020> <22:31:28>  >>>> CYCLE
 <Oct20-2020> <22:31:28>              |Error|         MaxErr       Wt(A-DIIS)
 <Oct20-2020> <22:31:28>      1      0.00000000      0.00000000
 <Oct20-2020> <22:31:28>      2     40.90708283      9.97740212    100.0
 <Oct20-2020> <22:31:28>      3     22.13776681      7.95655062    100.0
 <Oct20-2020> <22:31:28>      4     11.31925821      3.38837877    100.0
 <Oct20-2020> <22:31:28>      5      6.46835280      2.22297464    100.0
 <Oct20-2020> <22:31:28>      6      2.47249642      0.77035507    100.0
 <Oct20-2020> <22:31:28>      7      1.32688857      0.40987742    100.0
 <Oct20-2020> <22:31:28>      8      0.41726555      0.12310398    100.0
 <Oct20-2020> <22:31:28>      9      0.43634466      0.13597797    100.0
 <Oct20-2020> <22:31:28>     10      0.06429002      0.02168356     20.9
 <Oct20-2020> <22:31:28>     11      0.01986224      0.00661453      5.7
 <Oct20-2020> <22:31:29>     12      0.00170437      0.00055770      0.0
 <Oct20-2020> <22:31:29>     13      0.00001164      0.00000309      0.0
 <Oct20-2020> <22:31:29>     14      0.00000001      0.00000000      0.0
 <Oct20-2020> <22:31:29>  SCF converged
 <Oct20-2020> <22:31:29>     15      0.00000000      0.00000000      0.0
 <Oct20-2020> <22:31:29>  >>>> POPAN
 <Oct20-2020> <22:31:29>  >>>> DEBYE
 <Oct20-2020> <22:31:29>  NORMAL TERMINATION
 <Oct20-2020> <22:31:29>  END


 Parallel Execution: Process Information
 ==============================================================================
 Rank   Node Name                              NodeID   MyNodeRank  NodeMaster
 ==============================================================================


May use up to 61376MB of RAM as shared memory on node 0
 
AnalyticalFreq
end

NumericalQuality Good

QTAIM
    Enabled Yes
End

Relativistic Scalar ZORA

SOLVATION
  Surf Delley
  Solv name=Water cav0=0.0 cav1=0.0067639
  Charged method=CONJ
  C-Mat POT
  SCF VAR ALL
  CSMRSP
  Radii
    H=1.30
    O=1.72
    W=1.992
  SubEnd
end

ScanFreq -1000 0

XC
  GGA PBE
end

atoms
      1         W     13.766471     10.498728      2.247001
      2         O     13.313209     12.398972      2.054068
      3         W     11.632631     11.268461      4.859296
      4         W      9.603682     10.578148      2.334230
      5         W     11.741471      8.166772      3.267403
      6         O     13.467259     10.005383      0.569474
      7         O     13.657111      8.747224      3.151530
      8         O      9.730517     12.318562      1.929553
      9         O     13.623397     11.004213      4.433632
     10         O     15.533012     10.696120      2.228739
     11         O     11.732871     10.339471      2.770675
[...]
 <Oct20-2020> <22:44:38>  >>>> CORORT
 <Oct20-2020> <22:44:38>  >>>> CLSMAT
 <Oct20-2020> <22:44:38>  >>>> ORTHON
 <Oct20-2020> <22:44:38>  >>>> GENPT
 <Oct20-2020> <22:44:38>  Block Length= 128
 <Oct20-2020> <22:44:38>  >>>> PTBAS
 <Oct20-2020> <22:44:40>  combining surface points...
 <Oct20-2020> <22:44:40>  combining surface points...
 <Oct20-2020> <22:44:40>  combining surface points...
 <Oct20-2020> <22:44:40>  >>>> CYCLE
 <Oct20-2020> <22:44:42>              |Error|         MaxErr       Wt(A-DIIS)
 <Oct20-2020> <22:44:42>      1      0.20273327      0.03537809
 <Oct20-2020> <22:44:44>      2      0.50770860      0.04498690    100.0
 <Oct20-2020> <22:44:45>      3      0.16755230      0.02022312    100.0
 <Oct20-2020> <22:44:47>      4      0.23561061      0.02262323    100.0
 <Oct20-2020> <22:44:48>      5      0.65841935      0.07306625    100.0
 <Oct20-2020> <22:44:50>      6      0.17486645      0.02109196     20.3
 <Oct20-2020> <22:44:51>      7      0.07868514      0.00988866      9.0
 <Oct20-2020> <22:44:53>      8      0.03262717      0.00381836      2.8
 <Oct20-2020> <22:44:54>      9      0.00754125      0.00157243      0.6
 <Oct20-2020> <22:44:56>     10      0.00546648      0.00078455      0.0
 <Oct20-2020> <22:44:57>     11      0.00113449      0.00014272      0.0
 <Oct20-2020> <22:44:59>     12      0.00070494      0.00009168      0.0
 <Oct20-2020> <22:45:00>     13      0.00021355      0.00002672      0.0
 <Oct20-2020> <22:45:01>     14      0.00006502      0.00000853      0.0
 <Oct20-2020> <22:45:03>     15      0.00002933      0.00000418      0.0
 <Oct20-2020> <22:45:04>     16      0.00002957      0.00000414      0.0
 <Oct20-2020> <22:45:06>     17      0.00000240      0.00000030      0.0
 <Oct20-2020> <22:45:06>  SCF converged
 <Oct20-2020> <22:45:07>     18      0.00000312      0.00000047      0.0
 <Oct20-2020> <22:45:07>  >>>> TOTEN
 <Oct20-2020> <22:45:09>  >>>> POPAN
 <Oct20-2020> <22:45:09>  >>>> DEBYE
 <Oct20-2020> <22:45:09>  >>>> ENGRAD
 <Oct20-2020> <22:45:14>  current energy                               -6.61835166 Hartree
 <Oct20-2020> <22:45:14>  energy change                      -0.00001465     0.00100000    T
 <Oct20-2020> <22:45:14>  constrained gradient max            0.00075524     0.00100000    T
 <Oct20-2020> <22:45:14>  constrained gradient rms            0.00019789     0.00066667    T
 <Oct20-2020> <22:45:14>  gradient max                        0.00075524
 <Oct20-2020> <22:45:14>  gradient rms                        0.00019789
 <Oct20-2020> <22:45:14>  cart. step max                      0.00340539     0.01000000    T
 <Oct20-2020> <22:45:14>  cart. step rms                      0.00114570     0.00666667    T
 <Oct20-2020> <22:45:14>  GEOMETRY CONVERGED
 <Oct20-2020> <22:45:14>  Calculating Energy Terms for Final Geometry
  Coordinates in Geometry Cycle 22
    Atom         X           Y           Z   (Angstrom)
    1.W        13.778472   10.709918    2.148735
    2.O        13.439914   12.443452    1.814474
    3.W        11.711486   11.430781    4.765580
    4.W         9.543057   10.577576    2.264482
    5.W        11.760415    8.138070    3.139964
    6.O        13.496586   10.001978    0.520289
    7.O        13.548864    8.723442    2.966749
    8.O         9.743554   12.312828    1.840745
    9.O        13.510918   11.177083    4.262352
   10.O        15.569213   10.645757    2.345532
   11.O        11.688780   10.323201    2.847834
   12.O        11.743910    6.844378    1.904598
   13.O         9.899350   11.124175    4.328503
   14.O         7.773996   10.405315    2.562381
   15.O         9.789243    9.815968    0.654050
   16.O         9.937805    8.622007    3.133062
   17.O        11.686314   13.203441    4.993709
   18.O        11.750513   10.725270    6.404415
   19.O        11.858038    7.314816    4.720092
 <Oct20-2020> <22:45:14>  >>>> CORORT
 <Oct20-2020> <22:45:14>  >>>> CLSMAT
 <Oct20-2020> <22:45:14>  >>>> ORTHON
 <Oct20-2020> <22:45:14>  >>>> GENPT
 <Oct20-2020> <22:45:14>  Block Length= 128
 <Oct20-2020> <22:45:14>  >>>> PTBAS
 <Oct20-2020> <22:45:15>  combining surface points...
 <Oct20-2020> <22:45:15>  combining surface points...
 <Oct20-2020> <22:45:15>  combining surface points...
 <Oct20-2020> <22:45:15>  >>>> CYCLE
 <Oct20-2020> <22:45:18>              |Error|         MaxErr       Wt(A-DIIS)
 <Oct20-2020> <22:45:18>      1      0.15883429      0.01619669
 <Oct20-2020> <22:45:20>      2      0.50868469      0.06224110    100.0
 <Oct20-2020> <22:45:21>      3      0.16770569      0.02361850    100.0
 <Oct20-2020> <22:45:23>      4      0.23357947      0.03068476    100.0
 <Oct20-2020> <22:45:24>      5      0.67052927      0.09694320    100.0
 <Oct20-2020> <22:45:26>      6      0.17938369      0.02055154     19.7
 <Oct20-2020> <22:45:27>      7      0.07665366      0.01000531      9.1
 <Oct20-2020> <22:45:29>      8      0.03306510      0.00428329      3.3
 <Oct20-2020> <22:45:30>      9      0.00767853      0.00160166      0.6
 <Oct20-2020> <22:45:32>     10      0.00544846      0.00078159      0.0
 <Oct20-2020> <22:45:33>     11      0.00112904      0.00016274      0.0
 <Oct20-2020> <22:45:34>     12      0.00070260      0.00009369      0.0
 <Oct20-2020> <22:45:36>     13      0.00021295      0.00002751      0.0
 <Oct20-2020> <22:45:37>     14      0.00006283      0.00000877      0.0
 <Oct20-2020> <22:45:39>     15      0.00001958      0.00000262      0.0
 <Oct20-2020> <22:45:40>     16      0.00001727      0.00000309      0.0
 <Oct20-2020> <22:45:41>     17      0.00000253      0.00000027      0.0
 <Oct20-2020> <22:45:42>  SCF converged
 <Oct20-2020> <22:45:43>     18      0.00000203      0.00000026      0.0
 <Oct20-2020> <22:45:44>  >>>> TOTEN
 <Oct20-2020> <22:45:47>  QTAIM: determining topology...
 <Oct20-2020> <22:45:51>  >>>> POPAN
 <Oct20-2020> <22:45:51>  >>>> DEBYE
 <Oct20-2020> <22:45:51>  >>>> AMETS
 <Oct20-2020> <22:45:51>  >>>> POPUL
 <Oct20-2020> <22:45:51>   Bond Energy          -6.61835166 a.u.
 <Oct20-2020> <22:45:51>   Bond Energy        -180.09451200 eV
 <Oct20-2020> <22:45:51>   Bond Energy       -4153.08       kcal/mol
 <Oct20-2020> <22:45:51>  >>>> ENHESS
 <Oct20-2020> <22:45:56>  === NUCLEUS:     1
 <Oct20-2020> <22:47:28>  === NUCLEUS:     2
 <Oct20-2020> <22:48:56>  === NUCLEUS:     3
 <Oct20-2020> <22:50:23>  === NUCLEUS:     4
 <Oct20-2020> <22:51:51>  === NUCLEUS:     5
 <Oct20-2020> <22:53:09>  === NUCLEUS:     6
 <Oct20-2020> <22:54:29>  === NUCLEUS:     7
 <Oct20-2020> <22:55:49>  === NUCLEUS:     8
 <Oct20-2020> <22:57:07>  === NUCLEUS:     9
 <Oct20-2020> <22:58:27>  === NUCLEUS:    10
 <Oct20-2020> <22:59:45>  === NUCLEUS:    11
 <Oct20-2020> <23:01:05>  === NUCLEUS:    12
 <Oct20-2020> <23:02:25>  === NUCLEUS:    13
 <Oct20-2020> <23:03:45>  === NUCLEUS:    14
 <Oct20-2020> <23:05:03>  === NUCLEUS:    15
 <Oct20-2020> <23:06:23>  === NUCLEUS:    16
 <Oct20-2020> <23:07:43>  === NUCLEUS:    17
 <Oct20-2020> <23:09:01>  === NUCLEUS:    18
 <Oct20-2020> <23:10:20>  === NUCLEUS:    19
 <Oct20-2020> <23:11:38>  >>>> CALC_HESS_PMAT
 <Oct20-2020> <23:11:50>  >>>> CALC_HESS_WMAT
 <Oct20-2020> <23:11:54>  Symmetry  : NOSYM
 <Oct20-2020> <23:11:54>  >>>> FRAGM
 <Oct20-2020> <23:11:54>  Geometry symmetry displacement    1 out of    4
  Coordinates in Geometry Cycle 22
    Atom         X           Y           Z   (Angstrom)
    1.W        13.778467   10.709958    2.148754
    2.O        13.439825   12.443631    1.815258
    3.W        11.711539   11.430779    4.765576
    4.W         9.543059   10.577538    2.264460
    5.W        11.760365    8.138074    3.139969
    6.O        13.496658   10.002742    0.519989
    7.O        13.548818    8.723344    2.966045
    8.O         9.743443   12.312599    1.839917
    9.O        13.510943   11.176469    4.262682
   10.O        15.569205   10.645792    2.345563
   11.O        11.688779   10.323206    2.847830
   12.O        11.743372    6.844371    1.904622
   13.O         9.899341   11.124832    4.328136
   14.O         7.773999   10.405286    2.562365
   15.O         9.789376    9.815188    0.654391
   16.O         9.937815    8.622129    3.133803
   17.O        11.686864   13.203440    4.993758
   18.O        11.749977   10.725204    6.404396
   19.O        11.858589    7.314827    4.720062
 <Oct20-2020> <23:11:54>  >>>> CORORT
 <Oct20-2020> <23:11:54>  >>>> CLSMAT
 <Oct20-2020> <23:11:54>  >>>> ORTHON
 <Oct20-2020> <23:11:54>  >>>> GENPT
 <Oct20-2020> <23:11:54>  Block Length= 128
 <Oct20-2020> <23:11:55>  >>>> PTBAS
 <Oct20-2020> <23:11:56>  combining surface points...
 <Oct20-2020> <23:11:56>  combining surface points...
 <Oct20-2020> <23:11:56>  combining surface points...
 <Oct20-2020> <23:11:56>  >>>> CYCLE
 <Oct20-2020> <23:11:59>              |Error|         MaxErr       Wt(A-DIIS)
 <Oct20-2020> <23:11:59>      1      0.16355405      0.01688113
 <Oct20-2020> <23:12:00>      2      0.50867501      0.04508781    100.0
 <Oct20-2020> <23:12:02>      3      0.16770027      0.02017204    100.0
 <Oct20-2020> <23:12:03>      4      0.23360423      0.02244325    100.0
 <Oct20-2020> <23:12:05>      5      0.67035953      0.07445227    100.0
 <Oct20-2020> <23:12:06>      6      0.17933464      0.02129548     20.5
 <Oct20-2020> <23:12:08>      7      0.07738071      0.00976102      8.8
 <Oct20-2020> <23:12:09>      8      0.03264121      0.00377218      2.8
 <Oct20-2020> <23:12:11>      9      0.00751632      0.00155854      0.6
 <Oct20-2020> <23:12:12>     10      0.00546516      0.00079174      0.0
 <Oct20-2020> <23:12:14>     11      0.00114114      0.00014315      0.0
 <Oct20-2020> <23:12:15>     12      0.00070102      0.00009133      0.0
 <Oct20-2020> <23:12:16>     13      0.00021393      0.00002722      0.0
 <Oct20-2020> <23:12:18>     14      0.00006337      0.00000902      0.0
 <Oct20-2020> <23:12:19>     15      0.00001945      0.00000275      0.0
 <Oct20-2020> <23:12:20>     16      0.00001747      0.00000328      0.0
 <Oct20-2020> <23:12:22>     17      0.00000249      0.00000029      0.0
 <Oct20-2020> <23:12:22>  SCF converged
 <Oct20-2020> <23:12:23>     18      0.00000195      0.00000026      0.0
 <Oct20-2020> <23:12:24>  >>>> TOTEN
 <Oct20-2020> <23:12:24>  >>>> POPAN
 <Oct20-2020> <23:12:24>  >>>> DEBYE
 <Oct20-2020> <23:12:24>  >>>> ENGRAD
 <Oct20-2020> <23:12:29>  Geometry symmetry displacement    2 out of    4
  Coordinates in Geometry Cycle 22
    Atom         X           Y           Z   (Angstrom)
    1.W        13.778478   10.709878    2.148717
    2.O        13.440003   12.443273    1.813690
    3.W        11.711433   11.430783    4.765585
    4.W         9.543055   10.577614    2.264503
    5.W        11.760466    8.138065    3.139960
    6.O        13.496513   10.001214    0.520589
    7.O        13.548911    8.723540    2.967454
    8.O         9.743665   12.313057    1.841572
    9.O        13.510893   11.177697    4.262022
   10.O        15.569220   10.645721    2.345501
   11.O        11.688781   10.323196    2.847839
   12.O        11.744449    6.844386    1.904574
   13.O         9.899358   11.123518    4.328870
   14.O         7.773994   10.405345    2.562398
   15.O         9.789109    9.816749    0.653710
   16.O         9.937794    8.621885    3.132320
   17.O        11.685764   13.203443    4.993661
   18.O        11.751048   10.725335    6.404433
   19.O        11.857488    7.314805    4.720121
 <Oct20-2020> <23:12:29>  >>>> CORORT
 <Oct20-2020> <23:12:29>  >>>> CLSMAT
 <Oct20-2020> <23:12:29>  >>>> ORTHON
 <Oct20-2020> <23:12:29>  >>>> GENPT
 <Oct20-2020> <23:12:29>  Block Length= 128
 <Oct20-2020> <23:12:29>  >>>> PTBAS
 <Oct20-2020> <23:12:30>  combining surface points...
 <Oct20-2020> <23:12:30>  combining surface points...
 <Oct20-2020> <23:12:30>  combining surface points...
 <Oct20-2020> <23:12:30>  >>>> CYCLE
 <Oct20-2020> <23:12:33>              |Error|         MaxErr       Wt(A-DIIS)
 <Oct20-2020> <23:12:33>      1      0.17694985      0.02498515
 <Oct20-2020> <23:12:35>      2      0.50864212      0.04509053    100.0
 <Oct20-2020> <23:12:36>      3      0.16770062      0.02016959    100.0
 <Oct20-2020> <23:12:38>      4      0.23349695      0.02243213    100.0
 <Oct20-2020> <23:12:39>      5      0.67089901      0.07451470    100.0
 <Oct20-2020> <23:12:41>      6      0.17953210      0.02130177     20.5
 <Oct20-2020> <23:12:42>      7      0.07730521      0.00975417      8.8
 <Oct20-2020> <23:12:44>      8      0.03263578      0.00376937      2.8
 <Oct20-2020> <23:12:45>      9      0.00751489      0.00155766      0.6
 <Oct20-2020> <23:12:47>     10      0.00546438      0.00079210      0.0
 <Oct20-2020> <23:12:48>     11      0.00114191      0.00014320      0.0
 <Oct20-2020> <23:12:49>     12      0.00070103      0.00009133      0.0
 <Oct20-2020> <23:12:51>     13      0.00021394      0.00002726      0.0
 <Oct20-2020> <23:12:52>     14      0.00006342      0.00000902      0.0
 <Oct20-2020> <23:12:54>     15      0.00001938      0.00000275      0.0
 <Oct20-2020> <23:12:55>     16      0.00001724      0.00000320      0.0
 <Oct20-2020> <23:12:56>     17      0.00000250      0.00000029      0.0
 <Oct20-2020> <23:12:57>  SCF converged
 <Oct20-2020> <23:12:58>     18      0.00000195      0.00000026      0.0
 <Oct20-2020> <23:12:58>  >>>> TOTEN
 <Oct20-2020> <23:12:59>  >>>> POPAN
 <Oct20-2020> <23:12:59>  >>>> DEBYE
 <Oct20-2020> <23:12:59>  >>>> ENGRAD
 <Oct20-2020> <23:13:03>  Old frequency:    -55.71779, new:     16.00372
 <Oct20-2020> <23:13:03>  Geometry symmetry displacement    3 out of    4
  Coordinates in Geometry Cycle 22
    Atom         X           Y           Z   (Angstrom)
    1.W        13.778491   10.709883    2.148745
    2.O        13.439849   12.443295    1.813925
    3.W        11.711482   11.430859    4.765592
    4.W         9.543044   10.577543    2.264494
    5.W        11.760415    8.138112    3.139963
    6.O        13.496661   10.001401    0.520524
    7.O        13.548896    8.723609    2.967372
    8.O         9.743589   12.312664    1.840241
    9.O        13.510915   11.177633    4.262157
   10.O        15.569231   10.645853    2.345581
   11.O        11.688781   10.323259    2.847886
   12.O        11.743881    6.845146    1.903859
   13.O         9.899331   11.124687    4.328318
   14.O         7.773984   10.405400    2.562458
   15.O         9.789184    9.815455    0.654284
   16.O         9.937819    8.622170    3.133620
   17.O        11.686310   13.203435    4.994489
   18.O        11.750532   10.724577    6.404091
   19.O        11.858017    7.313917    4.719606
 <Oct20-2020> <23:13:03>  >>>> CORORT
 <Oct20-2020> <23:13:03>  >>>> CLSMAT
 <Oct20-2020> <23:13:03>  >>>> ORTHON
 <Oct20-2020> <23:13:04>  >>>> GENPT
 <Oct20-2020> <23:13:04>  Block Length= 128
 <Oct20-2020> <23:13:04>  >>>> PTBAS
 <Oct20-2020> <23:13:05>  combining surface points...
 <Oct20-2020> <23:13:05>  combining surface points...
 <Oct20-2020> <23:13:05>  combining surface points...
 <Oct20-2020> <23:13:05>  >>>> CYCLE
 <Oct20-2020> <23:13:08>              |Error|         MaxErr       Wt(A-DIIS)
 <Oct20-2020> <23:13:08>      1      0.16858688      0.02067004
 <Oct20-2020> <23:13:09>      2      0.50871982      0.04513991    100.0
 <Oct20-2020> <23:13:11>      3      0.16771403      0.02017062    100.0
 <Oct20-2020> <23:13:13>      4      0.23351143      0.02243537    100.0
 <Oct20-2020> <23:13:14>      5      0.67098437      0.07453104    100.0
 <Oct20-2020> <23:13:16>      6      0.17957569      0.02130949     20.5
 <Oct20-2020> <23:13:17>      7      0.07731028      0.00975692      8.8
 <Oct20-2020> <23:13:19>      8      0.03264288      0.00377076      2.8
 <Oct20-2020> <23:13:20>      9      0.00751584      0.00155776      0.6
 <Oct20-2020> <23:13:21>     10      0.00546473      0.00079203      0.0
 <Oct20-2020> <23:13:23>     11      0.00114162      0.00014324      0.0
 <Oct20-2020> <23:13:24>     12      0.00070061      0.00009121      0.0
 <Oct20-2020> <23:13:26>     13      0.00021400      0.00002722      0.0
 <Oct20-2020> <23:13:27>     14      0.00006340      0.00000906      0.0
 <Oct20-2020> <23:13:28>     15      0.00001930      0.00000271      0.0
 <Oct20-2020> <23:13:30>     16      0.00001696      0.00000313      0.0
 <Oct20-2020> <23:13:31>     17      0.00000251      0.00000029      0.0
 <Oct20-2020> <23:13:31>  SCF converged
 <Oct20-2020> <23:13:32>     18      0.00000191      0.00000026      0.0
 <Oct20-2020> <23:13:33>  >>>> TOTEN
 <Oct20-2020> <23:13:34>  >>>> POPAN
 <Oct20-2020> <23:13:34>  >>>> DEBYE
 <Oct20-2020> <23:13:34>  >>>> ENGRAD
 <Oct20-2020> <23:13:38>  Geometry symmetry displacement    4 out of    4
  Coordinates in Geometry Cycle 22
    Atom         X           Y           Z   (Angstrom)
    1.W        13.778454   10.709953    2.148725
    2.O        13.439978   12.443608    1.815023
    3.W        11.711490   11.430702    4.765568
    4.W         9.543069   10.577609    2.264469
    5.W        11.760416    8.138027    3.139966
    6.O        13.496510   10.002555    0.520054
    7.O        13.548833    8.723275    2.966127
    8.O         9.743518   12.312991    1.841248
    9.O        13.510921   11.176532    4.262547
   10.O        15.569194   10.645661    2.345483
   11.O        11.688778   10.323143    2.847783
   12.O        11.743940    6.843611    1.905336
   13.O         9.899368   11.123662    4.328689
   14.O         7.774009   10.405230    2.562304
   15.O         9.789301    9.816482    0.653817
   16.O         9.937790    8.621844    3.132504
   17.O        11.686318   13.203448    4.992930
   18.O        11.750493   10.725962    6.404739
   19.O        11.858060    7.315715    4.720577
 <Oct20-2020> <23:13:38>  >>>> CORORT
 <Oct20-2020> <23:13:38>  >>>> CLSMAT
 <Oct20-2020> <23:13:38>  >>>> ORTHON
 <Oct20-2020> <23:13:38>  >>>> GENPT
 <Oct20-2020> <23:13:38>  Block Length= 128
 <Oct20-2020> <23:13:38>  >>>> PTBAS
 <Oct20-2020> <23:13:40>  combining surface points...
 <Oct20-2020> <23:13:40>  combining surface points...
 <Oct20-2020> <23:13:40>  combining surface points...
 <Oct20-2020> <23:13:40>  >>>> CYCLE
 <Oct20-2020> <23:13:42>              |Error|         MaxErr       Wt(A-DIIS)
 <Oct20-2020> <23:13:42>      1      0.17844003      0.03128974
 <Oct20-2020> <23:13:44>      2      0.50868924      0.04502250    100.0
 <Oct20-2020> <23:13:46>      3      0.16770523      0.02017692    100.0
 <Oct20-2020> <23:13:47>      4      0.23373320      0.02245547    100.0
 <Oct20-2020> <23:13:49>      5      0.66975119      0.07438640    100.0
 <Oct20-2020> <23:13:50>      6      0.17911204      0.02128671     20.5
 <Oct20-2020> <23:13:52>      7      0.07746291      0.00976572      8.9
 <Oct20-2020> <23:13:53>      8      0.03264448      0.00377473      2.8
 <Oct20-2020> <23:13:55>      9      0.00751778      0.00155949      0.6
 <Oct20-2020> <23:13:56>     10      0.00546560      0.00079162      0.0
 <Oct20-2020> <23:13:57>     11      0.00114126      0.00014315      0.0
 <Oct20-2020> <23:13:59>     12      0.00070125      0.00009137      0.0
 <Oct20-2020> <23:14:00>     13      0.00021394      0.00002733      0.0
 <Oct20-2020> <23:14:01>     14      0.00006336      0.00000895      0.0
 <Oct20-2020> <23:14:03>     15      0.00001950      0.00000276      0.0
 <Oct20-2020> <23:14:04>     16      0.00001769      0.00000332      0.0
 <Oct20-2020> <23:14:05>     17      0.00000247      0.00000029      0.0
 <Oct20-2020> <23:14:06>  SCF converged
 <Oct20-2020> <23:14:07>     18      0.00000196      0.00000027      0.0
 <Oct20-2020> <23:14:07>  >>>> TOTEN
 <Oct20-2020> <23:14:08>  >>>> POPAN
 <Oct20-2020> <23:14:08>  >>>> DEBYE
 <Oct20-2020> <23:14:08>  >>>> ENGRAD
 <Oct20-2020> <23:14:12>  Old frequency:    -27.43616, new:     33.53863
 <Oct20-2020> <23:14:13>  NOTE: Some frequencies have been re-calculated by numerical differentiation
 <Oct20-2020> <23:14:13>        Check the text output file for new values!
 <Oct20-2020> <23:14:13>  NORMAL TERMINATION
 <Oct20-2020> <23:14:13>  END
