
 *******************************************************************************
 *                                                                             *
 *  -------------------------------------                                      *
 *   Amsterdam Density Functional  (ADF)         2019                          *
 *  -------------------------------------                                      *
 *                                               r79301 2019-11-09             *
 *                                                                             *
 *                                                                             *
 *                            =====================                            *
 *                            |                   |                            *
 *                            |     D I R A C     |                            *
 *                            |                   |                            *
 *                            =====================                            *
 *                                                                             *
 *                                                                             *
 *   Online information and documentation:  https://www.scm.com/support/       *
 *   E-mail:  support@scm.com   info@scm.com                                   *
 *                                                                             *
 *   Scientific publications using ADF results must be properly referenced     *
 *   See the User Manuals (or the web site) for recommended citations          *
 *   The terms and conditions of the End User License Agreement apply to       *
 *   the use of ADF, https://www.scm.com/license-terms/                        *
 *                                                                             *
 **********************  x86_64_linux_intel / intelmpi  ************************
 
 
 
  
 DIRAC 2019  RunTime: Oct21-2020 00:24:21  Nodes: 1  Procs: 1

 Temporary files are created in /scratch/kid_0.645661908 (0x58465342)

1
 HYDROGEN ATOM RELATIVISTIC, Point Nuc, A and c from libtc   
 N J RN H ZN XION ANUC CLIGHT
 5000    1100.00000000197.36710137  1.00000000  0.00000000    1.007825  0.1370360E+03
  PH   PHI     EPS        DEL        DELRVR
  0.30  0.30     2500.00  0.00001000  0.00001000
 IDIRC  NC1  NDEBU NPRIN  IPUN IRCOR IWCOR
   1   300     0     0     0     0     0
   XALPHA      XLATTER      RNUC
  0.70000000  0.00000000  0.00000000 Point Charge
   XN   XL   XJ      XE          XZ      XDELL
  1.0  0.0  0.5      -1.000       1.000     0.00000
 ICORP=  0  NPCL=  0  DEMP=0.00  PEPS=0.000000
 R(1)=  0.1000000E-08 D=  0.1005080E+01 RNUC=  0.0000000E+00
 converged at cycle   32  DENSITY AVERAGING    0.2400
  MAXIMUM ERROR IN R.V(R) IS   0.79874357E-05
 Q,EY,EV,EZ,ESUM,ETOT,RHO  0.100000E+01 -0.266614E+00 -0.619969E+00 -0.910779E+00 -0.203940E+00 -0.415998E+00  0.337036E-17


 DIRAC CALCULATION
1                    HYDROGEN ATOM RELATIVISTIC, Point Nuc, A and c from libtc


 EXCHANGE COEFFICIENT=  0.7000000           TAIL CORRECTION=  0.           NUCLEAR RADIUS=  0.000E+00
0                       ORBITAL    N    L    J     ELECTRONS     EIGENVALUE                DELTA OF EIGENV.

                          1S1/2  1.0  0.0  0.5     1.000       -0.2039397E+00                 0.2720093E-06


                                        NUCLEAR CHARGE=    1.000000
                            INTEGRAL OF CHARGE DENSITY=    1.000000
                           SUM OF THE ORBITAL ENERGIES=     -0.2039
                                          TOTAL ENERGY=     -0.4160
                                        KINETIC ENERGY=      0.4160
                             NUCLEAR ATTRACTION ENERGY=     -0.9108
                             ELECTRON REPULSION ENERGY=      0.2787
                                       EXCHANGE ENERGY=     -0.2000

 *******************************************************************************

                             D I R A C   E X I T
 NORMAL TERMINATION



 =================
 Timing Statistics
 =================
  
 Total Used :                     CPU=        0.06      System=        0.00     Elapsed=        0.08

 Calls  Section                     ( Mean, Percentage )
 ---------------------------------------------------------------------------------------------------
     2  ><      ................      0.00    0.00             0.00    0.00             0.00    0.01
     1  EXIT PROCEDURE .........      0.06  100.00             0.00    0.00             0.08   99.99


 Currently Open Files (EXIT00)
 ====================

 Unit    Access Format  Status   Type       Ident (file)
 -------------------------------------------------------
   3      SEQ    FORM   TRANSP  NORMAL      LOGFILE
                                          ( logfile )
 
Create H   file=TZP-H
XC
  GGA PBE
End
relativistic ZORA
Corepotentials t12.rel
End

 *******************************************************************************
 *                                                                             *
 *  -------------------------------------                                      *
 *   Amsterdam Density Functional  (ADF)         2019                          *
 *  -------------------------------------                                      *
 *                                               r79301 2019-11-09             *
 *                                                                             *
 *                                                                             *
 *                              =================                              *
 *                              |               |                              *
 *                              |     A D F     |                              *
 *                              |               |                              *
 *                              =================                              *
 *                                                                             *
 *                                                                             *
 *   Online information and documentation:  https://www.scm.com/support/       *
 *   E-mail:  support@scm.com   info@scm.com                                   *
 *                                                                             *
 *   Scientific publications using ADF results must be properly referenced     *
 *   See the User Manuals (or the web site) for recommended citations          *
 *   The terms and conditions of the End User License Agreement apply to       *
 *   the use of ADF, https://www.scm.com/license-terms/                        *
 *                                                                             *
 **********************  x86_64_linux_intel / intelmpi  ************************
 
 
 
  
 ADF 2019  RunTime: Oct21-2020 00:24:21  Nodes: 1  Procs: 1

 Temporary files are created in /scratch/kid_0.2108409084 (0x58465342)

 Hydrogen (TZP)



 ===========================
 A T T A C H E D   F I L E S
 ===========================
  
 CREATE - Data File:    TZP-H
                        Hydrogen (TZP)
 Core Potentials:
         file : t12.rel



 ===============================
 M O D E L   P A R A M E T E R S
 ===============================
  
 DENSITY FUNCTIONAL POTENTIAL (scf)
    LDA:                               PW92                                    == Not Default ==
    Gradient Corrections:              PBEc PBEx                               == Not Default ==

 SPIN  (restricted / unrestr.)
    Molecule:                          Restricted                               

 OTHER ASPECTS
    Relativistic Corrections:          scalar (ZORA,MAPA)                      == Not Default ==

    Nuclear Charge Density Model:      Point Charge Nuclei                      
    Core Treatment:                    Frozen Orbital(s)                        

    Hyperfine or Zeeman Interaction:   ---                                      



 =====================================
 S Y M M E T R Y ,   E L E C T R O N S
 =====================================
  
 Symmetry: ATOM

 Irreducible Representations, including subspecies
 -------------------------------------------------
 S
 P:x  P:y  P:z
 D:z2  D:x2-y2  D:xy  D:xz  D:yz
 F:z3  F:z  F:xyz  F:z2x  F:z2y  F:x  F:y


 Configuration of Valence Electrons
 ==================================

          Occupation Numbers
          -------------------------------------------------
 S        1
 P        0
 D        0
 F        0
          -------------------------------------------------

 Total:   1

 Net Charge: 0 (Nuclei minus Electrons)

 Preset values for MO occupations will be applied through SCF cycle no. 1000000
 Thereafter, the program will assign electrons to MOs that are spatially
 similar to the occupied MOs in a "reference" cycle ("KeepOrbitals").
 The reference cycle is always the PREVIOUS cycle: it will evolve with
 the SCF procedure.



 ================================
 (Slater-type)  F U N C T I O N S  ***  (Basis and Fit)  ***
 ================================
  

 Atom Type    1  (H)
 ==============

 Valence Basis Sets:   4
 -----------------------
   1 S    0.690000
   1 S    0.920000
   1 S    1.580000
   2 P    1.250000


 BAS: List of all Elementary Cartesian Basis Functions
 =====================================================

 The numbering in the list below (to the right of the function characteristics) is referred
 to in print-outs of MO eigenvectors and Mulliken populations in the BAS representation
 (as contrasted to the SFO representation).

 Notes:
 1. The functions are characterized by a polynomial prefactor (powers of x,y,z and r) and
    an exponential decay factor alpha.
 2. Since the basis sets are specific for an atom TYPE, the individual functions occur on
    all atoms of that type.
 3. The word 'Core' in the left margin signals that it is a Core Function (CF) : not a
    degree of freedom in the valence set, but only used to ensure orthogonalization of
    the other valence basis functions on the frozen Core Orbitals.


 (power of) X  Y  Z  R     Alpha  on Atom
            ==========     =====     ==========

 H                                    1
                                  ---------------------------------------------------------------------------
            0  0  0  0     0.690      1
            0  0  0  0     0.920      2
            0  0  0  0     1.580      3
            1  0  0  0     1.250      4
            0  1  0  0     1.250      5
            0  0  1  0     1.250      6

 Total number of charge fitting functions (nprimf)        50
 Total number of Cartesian basis functions (naos)          6
 Total number of Cartesian core functions  (ncos)          0



 BAS: List of all Elementary Cartesian Basis Functions
 =====================================================

 The numbering in the list below (to the right of the function characteristics) is referred
 to in print-outs of MO eigenvectors and Mulliken populations in the BAS representation
 (as contrasted to the SFO representation).

 Notes:
 1. The functions are characterized by a polynomial prefactor (powers of x,y,z and r) and
    an exponential decay factor alpha.
 2. Since the basis sets are specific for an atom TYPE, the individual functions occur on
    all atoms of that type.
 3. The word 'Core' in the left margin signals that it is a Core Function (CF) : not a
    degree of freedom in the valence set, but only used to ensure orthogonalization of
    the other valence basis functions on the frozen Core Orbitals.


 (power of) X  Y  Z  R     Alpha  on Atom
            ==========     =====     ==========

 H                                    1
                                  ---------------------------------------------------------------------------
            0  0  0  0     0.690      1
            0  0  0  0     0.920      2
            0  0  0  0     1.580      3
            1  0  0  0     1.250      4
            0  1  0  0     1.250      5
            0  0  1  0     1.250      6
1
 ***************************************************************************************************



                                              ***********************
                                              *  T E C H N I C A L  *
                                              ***********************
  



 =============================================================
 P A R A L L E L I Z A T I O N  and  V E C T O R I Z A T I O N
 =============================================================
  
 Nr of parallel processes:                                1
 Maximum vector length in NumInt loops:                 128



 =====================
 S C F   U P D A T E S
 =====================
  
 Max. nr. of cycles:                               300
 Convergence criterion:                              0.0000000100
   secondary criterion:                              0.0000000100

 Mix parameter (when DIIS does not apply):           0.2000000000
 Special mix parameter for the first cycle:          1.0000000000
 Mixed ADIIS+SDIIS will be used                  
    Max number of expansion vectors:                10
    Pure ADIIS when Max([F,P]) is above              0.1000000000
    Pure SDIIS when Max([F,P]) is below              0.0010000000
 Automatic ElectronSmearing (in case of problematic SCF convergence) disabled



 =================
 P R E C I S I O N  ***  (General: NumInt, NeglectFunctionTails, ...)  ***
 =================
  

 NumInt:           Target precision:                12.0000000000
 -------           Initial precision:               10.0000000000
                   Min. precision (optimization):   10.0000000000

 Neglect Functions:          Basis functions:        0.1000000000E-13
 ------------------          Fit functions:          0.1000000000E-13



 ===========================
 L I N E A R   S C A L I N G
 ===========================
  

 Cut-off radii density fit:                        0.1000000000E-97
 Overlap cut-off criterion AO matrix elements:     0.1000000000E-97
 Cut-offs for Coulomb potential and fitted density:0.1000000000E-97
 Cut-off criterion for Coulomb multipole terms:    0.1000000000E-97
 Progressive Convergence parameter:                 0.000000000    
1
 ***************************************************************************************************



                                            ***************************
                                            *  C O M P U T A T I O N  *
                                            ***************************
  

 Number of elements of the density matrix on this node (used, total):        21        21



 ===========================================
 Numerical Integration : Fuzzy Cells (Becke)
 ===========================================
  
 Becke grid quality: VERYGOOD       
  
 Lebedev angular grid order:             min:  13 max:  41
 Nr. of radial points:                   min:  64 max:  64

 Total nr. of points:         64
 Nr. of blocks:                1
 Block length:                64
 Nr. of dummy points:          0


 Test of Precision of the Numerical Integration Grid
 ===================================================

 Integral of the Total Core Density:                   0.00000000000000



 ========================
 Density Fitting (zlmFit)
 ========================
  
 ZlmFit Fit Quality: VERYGOOD       
  
 Max L-expansion:                        min:   0 max:   0
 Nr. of radial interpolation points:     min: 120 max: 120



 =====
 S C F  ***  ScaSCF  ***
 =====
  

 CYCLE    1
 SCF Error: norm([F,P])=      0.000000000000, max([F,P])=      0.000000000000
 orbitals (Q,E):
 ---------------
 S :1...3            ( 1.00    -0.5000)  ( 0.00    -0.0900)  ( 0.00     1.2936)
 P :1...1            ( 0.00     0.1562)

 CYCLE    2
 SCF Error: norm([F,P])=      0.031537872292, max([F,P])=      0.030110494752
 orbitals (Q,E):
 ---------------
 S :1...2            ( 1.00    -0.2218)  ( 0.00     0.1019)
 P :1...1            ( 0.00     0.4189)

 CYCLE    3
  SDIIS (wt  0.000):  0.1996  0.8004
 A-DIIS (wt  1.000):  0.0000  1.0000
  DIIS coefficients:  0.0000  1.0000
 SCF Error: norm([F,P])=      0.008617989401, max([F,P])=      0.008343029399
 orbitals (Q,E):
 ---------------
 S :1...2            ( 1.00    -0.2422)  ( 0.00     0.0889)
 P :1...1            ( 0.00     0.4024)

 CYCLE    4
  SDIIS (wt  0.993):  0.1666  0.8334
 A-DIIS (wt  0.007):  0.0000  1.0000
  DIIS coefficients:  0.1654  0.8346
 SCF Error: norm([F,P])=      0.001732350026, max([F,P])=      0.001718616814
 orbitals (Q,E):
 ---------------
 S :1...2            ( 1.00    -0.2385)  ( 0.00     0.0908)
 P :1...1            ( 0.00     0.4054)

 CYCLE    5
  SDIIS (wt  1.000):  0.0236  0.9764
  DIIS coefficients:  0.0236  0.9764
 SCF Error: norm([F,P])=      0.000043673449, max([F,P])=      0.000039769875
 orbitals (Q,E):
 ---------------
 S :1...2            ( 1.00    -0.2386)  ( 0.00     0.0908)
 P :1...1            ( 0.00     0.4054)

 CYCLE    6
  SDIIS (wt  1.000): -0.0577  1.0577
  DIIS coefficients: -0.0577  1.0577
 SCF Error: norm([F,P])=      0.000002383805, max([F,P])=      0.000002158128
 orbitals (Q,E):
 ---------------
 S :1...2            ( 1.00    -0.2386)  ( 0.00     0.0908)
 P :1...1            ( 0.00     0.4054)

 CYCLE    7
  SDIIS (wt  1.000): -0.0032  1.0032
  DIIS coefficients: -0.0032  1.0032
 SCF Error: norm([F,P])=      0.000000007721, max([F,P])=      0.000000007228
 orbitals (Q,E):
 ---------------
 S :1...2            ( 1.00    -0.2386)  ( 0.00     0.0908)
 P :1...1            ( 0.00     0.4054)

 SCF CONVERGED

 CYCLE    8
1
 ***************************************************************************************************



                                                *******************
                                                *  R E S U L T S  *
                                                *******************
  
 *** Using FIT density in Focky
  SDIIS (wt  1.000):  0.0192  0.9808
  DIIS coefficients:  0.0192  0.9808
 SCF Error: norm([F,P])=      0.000000000151, max([F,P])=      0.000000000141

 Scaled ZORA Orbital Energies, per Irrep and Spin:
 =================================================
                        Occup              E (au)              E (eV)       Diff (eV) with prev. cycle
                        -----      --------------------        ------       --------------------------
 S
               1        1.000     -0.23861775226993E+00        -6.493               7.43E-09
               2        0.000      0.90791701709251E-01         2.471
               3        0.000      0.15217530108908E+01        41.409
 P
               1        0.000      0.40537978060393E+00        11.031


 Partially Occupied:
               1 S                -0.23861775226993E+00
  
 LUMO :        2 S                 0.90791701709251E-01
  


 Orbital Energies, all Irreps
 ========================================

 Irrep        no.  (spin)   Occup              E (au)                E (eV)
 ---------------------------------------------------------------------------
 S             1             1.00       -0.23861775226993E+00        -6.4931
 S             2             0.00        0.90791701709251E-01         2.4706
 P             1             0.00        0.40537978060393E+00        11.0309
 S             3             0.00        0.15217530108908E+01        41.4090


 All Electron Calculation, thus no Orbital Energies of the Core Orbitals are calculated



 =======================================
 M U L L I K E N   P O P U L A T I O N S
 =======================================
  
 The survey below gives for each atom:
 a) the total charge (Z minus electrons)
 b) the net spin polarization (nr of electrons spin-A minus spin-B)
 c) for each spin the atomic electron valence density (integrated) per L-value.

 Atom              Charge    Spin density          S         P         D         F
 ----              ------    ------------       ------    ------    ------    ------
 1 H              -0.0000                       1.0000    0.0000    0.0000    0.0000

 Populations of individual BAS functions
 ----------------------------------------
 1 H            0.2104  0.6788  0.1107  0.0000  0.0000  0.0000

 Gross Charges per Atom (Z minus electrons)
 ==========================================
            -0.0000
 Net Total: -0.00000000



 =======================================================================
 Electrostatic potential at the Nuclei due to electrons and other nuclei
 =======================================================================
  
         Atom                  Potential
         ----                  ---------
     1)   H                   0.94468022
 
 
 ========================
 No memory problems found
 ========================
 
 Maximum number of active allocate calls:         306
 
 *******************************************************************************

                             A D F   E X I T
 NORMAL TERMINATION



 =================
 Timing Statistics
 =================
  
 Total Used :                     CPU=        0.34      System=        0.02     Elapsed=        0.39

 Calls  Section                     ( Mean, Percentage )
 ---------------------------------------------------------------------------------------------------
     3  ><      ................      0.00    1.18             0.00    0.00             0.00    1.04
     1  INIT    ................      0.08   22.35             0.00    0.00             0.08   20.34
     1  GEOMET  ................      0.02    5.88             0.00    0.00             0.02    6.00
     1  INPUTA  ................      0.00    0.00             0.00    0.00             0.00    0.90
     1  MAINSY  ................      0.01    3.53             0.00    0.00             0.01    3.47
     1  SYMFIT  ................      0.00    0.00             0.00    0.00             0.00    0.43
     1  CORORT  ................      0.00    0.00             0.00    0.00             0.00    0.32
     1  SYMORB  ................      0.00    0.00             0.00    0.00             0.00    0.19
     1  CLSMAT  ................      0.00    1.18             0.00    0.00             0.01    1.38
     1  ORTHON  ................      0.00    1.18             0.00    0.00             0.00    1.26
     1  GENPT   ................      0.01    3.53             0.00   25.00             0.01    3.30
     1  PTBAS   ................      0.00    1.18             0.00    0.00             0.01    1.37
     8  FOCKY   ................      0.02   43.53             0.00   50.00             0.02   44.32
     8  FOCKTR  ................      0.00    0.00             0.00   25.00             0.00    1.25
     8  SDIIS   ................      0.00    7.06             0.00    0.00             0.00    5.68
     1  COREPS  ................      0.02    4.71             0.00    0.00             0.01    3.65
     1  POPAN   ................      0.00    1.18             0.00    0.00             0.00    1.23
     1  DEBYE   ................      0.00    0.00             0.00    0.00             0.00    0.48
     1  EXIT PROCEDURE .........      0.01    3.53             0.00    0.00             0.01    3.38


 Currently Open Files (EXIT00)
 ====================

 Unit    Access Format  Status   Type       Ident (file)
 -------------------------------------------------------
   3      SEQ    FORM   TRANSP  NORMAL      LOGFILE
                                          ( logfile )

 ***************************************************************************************************
 (LOGFILE)
 <Oct21-2020> <00:24:21>  DIRAC 2019  RunTime: Oct21-2020 00:24:21  Nodes: 1  Procs: 1
 <Oct21-2020> <00:24:21>  NORMAL TERMINATION
 <Oct21-2020> <00:24:21>  END
 <Oct21-2020> <00:24:21>  ADF 2019  RunTime: Oct21-2020 00:24:21  Nodes: 1  Procs: 1
 <Oct21-2020> <00:24:21>  Hydrogen (TZP)
 <Oct21-2020> <00:24:21>  RunType   : CREATE
 <Oct21-2020> <00:24:21>  Net Charge: 0 (Nuclei minus Electrons)
 <Oct21-2020> <00:24:21>  Symmetry  : ATOM
  Coordinates
    Atom         X           Y           Z   (Angstrom)
    1.H         0.000000    0.000000    0.000000
 <Oct21-2020> <00:24:21>  >>>> CORORT
 <Oct21-2020> <00:24:21>  >>>> CLSMAT
 <Oct21-2020> <00:24:21>  >>>> ORTHON
 <Oct21-2020> <00:24:21>  >>>> GENPT
 <Oct21-2020> <00:24:21>  Block Length=  64
 <Oct21-2020> <00:24:21>  >>>> PTBAS
 <Oct21-2020> <00:24:21>  >>>> CYCLE
 <Oct21-2020> <00:24:22>              |Error|         MaxErr       Wt(A-DIIS)
 <Oct21-2020> <00:24:22>      1      0.00000000      0.00000000
 <Oct21-2020> <00:24:22>      2      0.03153787      0.03011049
 <Oct21-2020> <00:24:22>      3      0.00861799      0.00834303    100.0
 <Oct21-2020> <00:24:22>      4      0.00173235      0.00171862      0.7
 <Oct21-2020> <00:24:22>      5      0.00004367      0.00003977      0.0
 <Oct21-2020> <00:24:22>      6      0.00000238      0.00000216      0.0
 <Oct21-2020> <00:24:22>      7      0.00000001      0.00000001      0.0
 <Oct21-2020> <00:24:22>  SCF converged
 <Oct21-2020> <00:24:22>      8      0.00000000      0.00000000      0.0
 <Oct21-2020> <00:24:22>  >>>> POPAN
 <Oct21-2020> <00:24:22>  >>>> DEBYE
 <Oct21-2020> <00:24:22>  NORMAL TERMINATION
 <Oct21-2020> <00:24:22>  END

 *******************************************************************************
 *                                                                             *
 *  -------------------------------------                                      *
 *   Amsterdam Density Functional  (ADF)         2019                          *
 *  -------------------------------------                                      *
 *                                               r79301 2019-11-09             *
 *                                                                             *
 *                                                                             *
 *                            =====================                            *
 *                            |                   |                            *
 *                            |     D I R A C     |                            *
 *                            |                   |                            *
 *                            =====================                            *
 *                                                                             *
 *                                                                             *
 *   Online information and documentation:  https://www.scm.com/support/       *
 *   E-mail:  support@scm.com   info@scm.com                                   *
 *                                                                             *
 *   Scientific publications using ADF results must be properly referenced     *
 *   See the User Manuals (or the web site) for recommended citations          *
 *   The terms and conditions of the End User License Agreement apply to       *
 *   the use of ADF, https://www.scm.com/license-terms/                        *
 *                                                                             *
 **********************  x86_64_linux_intel / intelmpi  ************************
 
 
 
  
 DIRAC 2019  RunTime: Oct21-2020 00:24:22  Nodes: 1  Procs: 1

 Temporary files are created in /scratch/kid_0.532849795 (0x58465342)

1
 OXYGEN ATOM 1s CORE RELATIVISTIC, Point Nuc, A and c from li
 N J RN H ZN XION ANUC CLIGHT
 5000    4100.00000000197.36710137  8.00000000  0.00000000   15.994914  0.1370360E+03
  PH   PHI     EPS        DEL        DELRVR
  0.30  0.30     2500.00  0.00001000  0.00001000
 IDIRC  NC1  NDEBU NPRIN  IPUN IRCOR IWCOR
   1   300     0     0     0     0     1
   XALPHA      XLATTER      RNUC
  0.70000000  0.00000000  0.00000000 Point Charge
   XN   XL   XJ      XE          XZ      XDELL
  1.0  0.0  0.5      -5.000       2.000     0.00000
  2.0  0.0  0.5      -1.000       2.000     0.00000
  2.0  1.0  0.5      -1.000       2.000     0.00000
  2.0  1.0  1.5      -1.000       2.000     0.00000
 ICORP=  0  NPCL=  0  DEMP=0.00  PEPS=0.000000
 R(1)=  0.1000000E-08 D=  0.1005080E+01 RNUC=  0.0000000E+00
 converged at cycle   28  DENSITY AVERAGING    0.2400
  MAXIMUM ERROR IN R.V(R) IS   0.81125670E-05
 Q,EY,EV,EZ,ESUM,ETOT,RHO  0.800000E+01 -0.101247E+02 -0.114961E+03 -0.177573E+03 -0.405053E+02 -0.743427E+02  0.414766E-14


 DIRAC CALCULATION
1                    OXYGEN ATOM 1s CORE RELATIVISTIC, Point Nuc, A and c from libtc


 EXCHANGE COEFFICIENT=  0.7000000           TAIL CORRECTION=  0.           NUCLEAR RADIUS=  0.000E+00
0                       ORBITAL    N    L    J     ELECTRONS     EIGENVALUE                DELTA OF EIGENV.

                          1S1/2  1.0  0.0  0.5     2.000       -0.1880014E+02                 0.7264358E-06
                          2S1/2  2.0  0.0  0.5     2.000       -0.8412236E+00                 0.5932752E-05
                          2P1/2  2.0  1.0  0.5     2.000       -0.3063203E+00                 0.5998471E-05
                          2P3/2  2.0  1.0  1.5     2.000       -0.3049609E+00                 0.5986971E-05


                                        NUCLEAR CHARGE=    8.000000
                            INTEGRAL OF CHARGE DENSITY=    8.000000
                           SUM OF THE ORBITAL ENERGIES=    -40.5053
                                          TOTAL ENERGY=    -74.3427
                                        KINETIC ENERGY=     74.4552
                             NUCLEAR ATTRACTION ENERGY=   -177.5730
                             ELECTRON REPULSION ENERGY=     36.3686
                                       EXCHANGE ENERGY=     -7.5935

 *******************************************************************************

                             D I R A C   E X I T
 NORMAL TERMINATION



 =================
 Timing Statistics
 =================
  
 Total Used :                     CPU=        0.10      System=        0.00     Elapsed=        0.11

 Calls  Section                     ( Mean, Percentage )
 ---------------------------------------------------------------------------------------------------
     2  ><      ................      0.00    0.00             0.00    0.00             0.00    0.01
     1  EXIT PROCEDURE .........      0.10  100.00             0.00  100.00             0.11   99.99


 Currently Open Files (EXIT00)
 ====================

 Unit    Access Format  Status   Type       Ident (file)
 -------------------------------------------------------
   3      SEQ    FORM   TRANSP  NORMAL      LOGFILE
                                          ( logfile )
 
Create O   file=TZP-O.1s
XC
  GGA PBE
End
relativistic ZORA
Corepotentials t12.rel
End

 *******************************************************************************
 *                                                                             *
 *  -------------------------------------                                      *
 *   Amsterdam Density Functional  (ADF)         2019                          *
 *  -------------------------------------                                      *
 *                                               r79301 2019-11-09             *
 *                                                                             *
 *                                                                             *
 *                              =================                              *
 *                              |               |                              *
 *                              |     A D F     |                              *
 *                              |               |                              *
 *                              =================                              *
 *                                                                             *
 *                                                                             *
 *   Online information and documentation:  https://www.scm.com/support/       *
 *   E-mail:  support@scm.com   info@scm.com                                   *
 *                                                                             *
 *   Scientific publications using ADF results must be properly referenced     *
 *   See the User Manuals (or the web site) for recommended citations          *
 *   The terms and conditions of the End User License Agreement apply to       *
 *   the use of ADF, https://www.scm.com/license-terms/                        *
 *                                                                             *
 **********************  x86_64_linux_intel / intelmpi  ************************
 
 
 
  
 ADF 2019  RunTime: Oct21-2020 00:24:22  Nodes: 1  Procs: 1

 Temporary files are created in /scratch/kid_0.531005578 (0x58465342)

 Oxygen (TZP, 1s frozen)



 ===========================
 A T T A C H E D   F I L E S
 ===========================
  
 CREATE - Data File:    TZP-O.1s
                        Oxygen (TZP, 1s frozen)
 Core Potentials:
         file : t12.rel



 ===============================
 M O D E L   P A R A M E T E R S
 ===============================
  
 DENSITY FUNCTIONAL POTENTIAL (scf)
    LDA:                               PW92                                    == Not Default ==
    Gradient Corrections:              PBEc PBEx                               == Not Default ==

 SPIN  (restricted / unrestr.)
    Molecule:                          Restricted                               

 OTHER ASPECTS
    Relativistic Corrections:          scalar (ZORA,MAPA)                      == Not Default ==

    Nuclear Charge Density Model:      Point Charge Nuclei                      
    Core Treatment:                    Frozen Orbital(s)                        

    Hyperfine or Zeeman Interaction:   ---                                      



 =====================================
 S Y M M E T R Y ,   E L E C T R O N S
 =====================================
  
 Symmetry: ATOM

 Irreducible Representations, including subspecies
 -------------------------------------------------
 S
 P:x  P:y  P:z
 D:z2  D:x2-y2  D:xy  D:xz  D:yz
 F:z3  F:z  F:xyz  F:z2x  F:z2y  F:x  F:y


 Configuration of Valence Electrons
 ==================================

          Occupation Numbers
          -------------------------------------------------
 S        2
 P        4
 D        0
 F        0
          -------------------------------------------------

 Total:   6

 Net Charge: 0 (Nuclei minus Electrons)

 Preset values for MO occupations will be applied through SCF cycle no. 1000000
 Thereafter, the program will assign electrons to MOs that are spatially
 similar to the occupied MOs in a "reference" cycle ("KeepOrbitals").
 The reference cycle is always the PREVIOUS cycle: it will evolve with
 the SCF procedure.



 ================================
 (Slater-type)  F U N C T I O N S  ***  (Basis and Fit)  ***
 ================================
  

 Atom Type    1  (O)
 ==============

 Valence Basis Sets:   8
 -----------------------
   1 S    7.360000
   2 S    1.720000
   2 S    2.880000
   2 S    7.580000
   2 P    1.120000
   2 P    2.080000
   2 P    4.080000
   3 D    2.000000

 Frozen Core Shells
 ------------------
    S:  1


 BAS: List of all Elementary Cartesian Basis Functions
 =====================================================

 The numbering in the list below (to the right of the function characteristics) is referred
 to in print-outs of MO eigenvectors and Mulliken populations in the BAS representation
 (as contrasted to the SFO representation).

 Notes:
 1. The functions are characterized by a polynomial prefactor (powers of x,y,z and r) and
    an exponential decay factor alpha.
 2. Since the basis sets are specific for an atom TYPE, the individual functions occur on
    all atoms of that type.
 3. The word 'Core' in the left margin signals that it is a Core Function (CF) : not a
    degree of freedom in the valence set, but only used to ensure orthogonalization of
    the other valence basis functions on the frozen Core Orbitals.


 (power of) X  Y  Z  R     Alpha  on Atom
            ==========     =====     ==========

 O                                    1
                                  ---------------------------------------------------------------------------
    Core    0  0  0  0     7.360      1
            0  0  0  1     1.720      2
            0  0  0  1     2.880      3
            0  0  0  1     7.580      4
            1  0  0  0     1.120      5
            0  1  0  0     1.120      6
            0  0  1  0     1.120      7
            1  0  0  0     2.080      8
            0  1  0  0     2.080      9
            0  0  1  0     2.080     10
            1  0  0  0     4.080     11
            0  1  0  0     4.080     12
            0  0  1  0     4.080     13
            2  0  0  0     2.000     14
            1  1  0  0     2.000     15
            1  0  1  0     2.000     16
            0  2  0  0     2.000     17
            0  1  1  0     2.000     18
            0  0  2  0     2.000     19

 Total number of charge fitting functions (nprimf)        82
 Total number of Cartesian basis functions (naos)         19
 Total number of Cartesian core functions  (ncos)          1



 BAS: List of all Elementary Cartesian Basis Functions
 =====================================================

 The numbering in the list below (to the right of the function characteristics) is referred
 to in print-outs of MO eigenvectors and Mulliken populations in the BAS representation
 (as contrasted to the SFO representation).

 Notes:
 1. The functions are characterized by a polynomial prefactor (powers of x,y,z and r) and
    an exponential decay factor alpha.
 2. Since the basis sets are specific for an atom TYPE, the individual functions occur on
    all atoms of that type.
 3. The word 'Core' in the left margin signals that it is a Core Function (CF) : not a
    degree of freedom in the valence set, but only used to ensure orthogonalization of
    the other valence basis functions on the frozen Core Orbitals.


 (power of) X  Y  Z  R     Alpha  on Atom
            ==========     =====     ==========

 O                                    1
                                  ---------------------------------------------------------------------------
    Core    0  0  0  0     7.360      1
            0  0  0  1     1.720      2
            0  0  0  1     2.880      3
            0  0  0  1     7.580      4
            1  0  0  0     1.120      5
            0  1  0  0     1.120      6
            0  0  1  0     1.120      7
            1  0  0  0     2.080      8
            0  1  0  0     2.080      9
            0  0  1  0     2.080     10
            1  0  0  0     4.080     11
            0  1  0  0     4.080     12
            0  0  1  0     4.080     13
            2  0  0  0     2.000     14
            1  1  0  0     2.000     15
            1  0  1  0     2.000     16
            0  2  0  0     2.000     17
            0  1  1  0     2.000     18
            0  0  2  0     2.000     19
1
 ***************************************************************************************************



                                              ***********************
                                              *  T E C H N I C A L  *
                                              ***********************
  



 =============================================================
 P A R A L L E L I Z A T I O N  and  V E C T O R I Z A T I O N
 =============================================================
  
 Nr of parallel processes:                                1
 Maximum vector length in NumInt loops:                 128



 =====================
 S C F   U P D A T E S
 =====================
  
 Max. nr. of cycles:                               300
 Convergence criterion:                              0.0000000100
   secondary criterion:                              0.0000000100

 Mix parameter (when DIIS does not apply):           0.2000000000
 Special mix parameter for the first cycle:          1.0000000000
 Mixed ADIIS+SDIIS will be used                  
    Max number of expansion vectors:                10
    Pure ADIIS when Max([F,P]) is above              0.1000000000
    Pure SDIIS when Max([F,P]) is below              0.0010000000
 Automatic ElectronSmearing (in case of problematic SCF convergence) disabled



 =================
 P R E C I S I O N  ***  (General: NumInt, NeglectFunctionTails, ...)  ***
 =================
  

 NumInt:           Target precision:                12.0000000000
 -------           Initial precision:               10.0000000000
                   Min. precision (optimization):   10.0000000000

 Neglect Functions:          Basis functions:        0.1000000000E-13
 ------------------          Fit functions:          0.1000000000E-13



 ===========================
 L I N E A R   S C A L I N G
 ===========================
  

 Cut-off radii density fit:                        0.1000000000E-97
 Overlap cut-off criterion AO matrix elements:     0.1000000000E-97
 Cut-offs for Coulomb potential and fitted density:0.1000000000E-97
 Cut-off criterion for Coulomb multipole terms:    0.1000000000E-97
 Progressive Convergence parameter:                 0.000000000    
1
 ***************************************************************************************************



                                            ***************************
                                            *  C O M P U T A T I O N  *
                                            ***************************
  

 Number of elements of the density matrix on this node (used, total):       190       190



 ===========================================
 Numerical Integration : Fuzzy Cells (Becke)
 ===========================================
  
 Becke grid quality: VERYGOOD       
  
 Lebedev angular grid order:             min:  13 max:  41
 Nr. of radial points:                   min:  68 max:  68

 Total nr. of points:         68
 Nr. of blocks:                1
 Block length:                68
 Nr. of dummy points:          0


 Test of Precision of the Numerical Integration Grid
 ===================================================

 Integral of the Total Core Density:                   1.99999999865610
 Relative Error:                                      -6.720E-10



 ========================
 Density Fitting (zlmFit)
 ========================
  
 ZlmFit Fit Quality: VERYGOOD       
  
 Max L-expansion:                        min:   0 max:   0
 Nr. of radial interpolation points:     min: 140 max: 140



 =====
 S C F  ***  ScaSCF  ***
 =====
  

 CYCLE    1
 SCF Error: norm([F,P])=      0.000000000000, max([F,P])=      0.000000000000
 orbitals (Q,E):
 ---------------
 S :1...3            ( 2.00    -5.3654)  ( 0.00    -2.2073)  ( 0.00    23.6692)
 P :1...3            ( 4.00    -5.0045)  ( 0.00    -2.0150)  ( 0.00    -0.3846)
 D :1...1            ( 0.00    -2.0410)

 CYCLE    2
 SCF Error: norm([F,P])=      4.562993374873, max([F,P])=      2.528971113813
 orbitals (Q,E):
 ---------------
 S :1...2            ( 2.00    -0.1548)  ( 0.00     1.6948)
 P :1...2            ( 4.00     0.1773)  ( 0.00     0.9552)
 D :1...1            ( 0.00     1.4649)

 CYCLE    3
  SDIIS (wt  0.000):  0.3378  0.6622
 A-DIIS (wt  1.000):  0.4814  0.5186
  DIIS coefficients:  0.4814  0.5186
 SCF Error: norm([F,P])=      2.723155250500, max([F,P])=      1.798667049295
 orbitals (Q,E):
 ---------------
 S :1...2            ( 2.00    -1.1093)  ( 0.00     0.7549)
 P :1...2            ( 4.00    -0.5518)  ( 0.00     0.2590)
 D :1...1            ( 0.00     0.8910)

 CYCLE    4
  SDIIS (wt  0.000):  0.0919  0.9081
 A-DIIS (wt  1.000):  0.0000  1.0000
  DIIS coefficients:  0.0000  1.0000
 SCF Error: norm([F,P])=      0.289027138405, max([F,P])=      0.130648623511
 orbitals (Q,E):
 ---------------
 S :1...2            ( 2.00    -0.7707)  ( 0.00     0.9912)
 P :1...2            ( 4.00    -0.2284)  ( 0.00     0.4046)
 D :1...1            ( 0.00     1.1288)

 CYCLE    5
  SDIIS (wt  0.000):  0.0260  0.6740  0.3001
 A-DIIS (wt  1.000):  0.0000  0.5764  0.4236
  DIIS coefficients:  0.0000  0.5764  0.4236
 SCF Error: norm([F,P])=      0.416615089426, max([F,P])=      0.232643669786
 orbitals (Q,E):
 ---------------
 S :1...2            ( 2.00    -0.8764)  ( 0.00     0.9107)
 P :1...2            ( 4.00    -0.3280)  ( 0.00     0.3557)
 D :1...1            ( 0.00     1.0703)

 CYCLE    6
  SDIIS (wt  0.942):  0.0005  0.0237 -0.0203  0.9960
 A-DIIS (wt  0.058):  0.0000  0.0000  0.0000  1.0000
  DIIS coefficients:  0.0005  0.0224 -0.0191  0.9962
 SCF Error: norm([F,P])=      0.013723272809, max([F,P])=      0.006719036732
 orbitals (Q,E):
 ---------------
 S :1...2            ( 2.00    -0.8830)  ( 0.00     0.9058)
 P :1...2            ( 4.00    -0.3343)  ( 0.00     0.3521)
 D :1...1            ( 0.00     1.0657)

 CYCLE    7
  SDIIS (wt  1.000): -0.0000  0.0016  0.0023  0.0424  0.9537
  DIIS coefficients: -0.0000  0.0016  0.0023  0.0424  0.9537
 SCF Error: norm([F,P])=      0.001103645928, max([F,P])=      0.000634039171
 orbitals (Q,E):
 ---------------
 S :1...2            ( 2.00    -0.8827)  ( 0.00     0.9060)
 P :1...2            ( 4.00    -0.3340)  ( 0.00     0.3523)
 D :1...1            ( 0.00     1.0659)

 CYCLE    8
  SDIIS (wt  1.000): -0.0000 -0.0001  0.0000 -0.0032  0.0268  0.9765
  DIIS coefficients: -0.0000 -0.0001  0.0000 -0.0032  0.0268  0.9765
 SCF Error: norm([F,P])=      0.000035919805, max([F,P])=      0.000020263970
 orbitals (Q,E):
 ---------------
 S :1...2            ( 2.00    -0.8827)  ( 0.00     0.9060)
 P :1...2            ( 4.00    -0.3340)  ( 0.00     0.3522)
 D :1...1            ( 0.00     1.0659)

 CYCLE    9
  SDIIS (wt  1.000): -0.0000  0.0008  0.0188  0.9804
  DIIS coefficients: -0.0000  0.0008  0.0188  0.9804
 SCF Error: norm([F,P])=      0.000000326384, max([F,P])=      0.000000183924
 orbitals (Q,E):
 ---------------
 S :1...2            ( 2.00    -0.8827)  ( 0.00     0.9060)
 P :1...2            ( 4.00    -0.3340)  ( 0.00     0.3522)
 D :1...1            ( 0.00     1.0659)

 CYCLE   10
  SDIIS (wt  1.000):  0.0000  0.0003  0.9996
  DIIS coefficients:  0.0000  0.0003  0.9996
 SCF Error: norm([F,P])=      0.000000000559, max([F,P])=      0.000000000306
 orbitals (Q,E):
 ---------------
 S :1...2            ( 2.00    -0.8827)  ( 0.00     0.9060)
 P :1...2            ( 4.00    -0.3340)  ( 0.00     0.3522)
 D :1...1            ( 0.00     1.0659)

 SCF CONVERGED

 CYCLE   11
1
 ***************************************************************************************************



                                                *******************
                                                *  R E S U L T S  *
                                                *******************
  
 *** Using FIT density in Focky
  SDIIS (wt  1.000): -0.0000  0.0143  0.9857
  DIIS coefficients: -0.0000  0.0143  0.9857
 SCF Error: norm([F,P])=      0.000000000010, max([F,P])=      0.000000000006

 Scaled ZORA Orbital Energies, per Irrep and Spin:
 =================================================
                        Occup              E (au)              E (eV)       Diff (eV) with prev. cycle
                        -----      --------------------        ------       --------------------------
 S
               1        2.000     -0.88272313143209E+00       -24.020              -9.28E-11
               2        0.000      0.90601345014671E+00        24.654
               3        0.000      0.29578810816937E+02       804.880
 P
               1        4.000     -0.33400585272070E+00        -9.089              -8.94E-11
               2        0.000      0.35224911365993E+00         9.585
               3        0.000      0.38342927625315E+01       104.336
 D
               1        0.000      0.10658965783141E+01        29.005


 Partially Occupied:
               1 P                -0.33400585272070E+00
  
 HOMO :        1 S                -0.88272313143209E+00
 LUMO :        2 P                 0.35224911365993E+00
  


 Orbital Energies, all Irreps
 ========================================

 Irrep        no.  (spin)   Occup              E (au)                E (eV)
 ---------------------------------------------------------------------------
 S             1             2.00       -0.88272313143209E+00       -24.0201
 P             1             4.00       -0.33400585272070E+00        -9.0888
 P             2             0.00        0.35224911365993E+00         9.5852
 S             2             0.00        0.90601345014671E+00        24.6539
 D             1             0.00        0.10658965783141E+01        29.0045
 P             3             0.00        0.38342927625315E+01       104.3364
 S             3             0.00        0.29578810816937E+02       804.8804


 Scaled ZORA Orbital Energies of the Core Orbitals:
 ==================================================

 (Note that the atoms are grouped by atomtype, see the labels, and may hence NOT be in input order)

 AtomType  Orbital  Atom                   E (au)                        E (eV)
 --------  -------  ----           --------------------        ----------------
 O           1S        1          -0.18925919758629E+02                -515.000



 =======================================
 M U L L I K E N   P O P U L A T I O N S
 =======================================
  
 The survey below gives for each atom:
 a) the total charge (Z minus electrons)
 b) the net spin polarization (nr of electrons spin-A minus spin-B)
 c) for each spin the atomic electron valence density (integrated) per L-value.

 Atom              Charge    Spin density          S         P         D         F
 ----              ------    ------------       ------    ------    ------    ------
 1 O              -0.0000                       2.0000    4.0000    0.0000    0.0000

 Populations of individual BAS functions
 ----------------------------------------
 1 O            0.0005  0.9226  1.0966 -0.0196  0.3346  0.3346  0.3346  0.7512  0.7512  0.7512
                0.2476  0.2476  0.2476  0.0000  0.0000  0.0000  0.0000  0.0000  0.0000

 Gross Charges per Atom (Z minus electrons)
 ==========================================
            -0.0000
 Net Total: -0.00000000



 =======================================================================
 Electrostatic potential at the Nuclei due to electrons and other nuclei
 =======================================================================
  
         Atom                  Potential
         ----                  ---------
     1)   O                  22.20265662
 
 
 ========================
 No memory problems found
 ========================
 
 Maximum number of active allocate calls:         389
 
 *******************************************************************************

                             A D F   E X I T
 NORMAL TERMINATION



 =================
 Timing Statistics
 =================
  
 Total Used :                     CPU=        0.44      System=        0.02     Elapsed=        0.48

 Calls  Section                     ( Mean, Percentage )
 ---------------------------------------------------------------------------------------------------
     3  ><      ................      0.00    0.92             0.00    0.00             0.00    0.90
     1  INIT    ................      0.07   15.60             0.00   25.00             0.08   16.15
     1  GEOMET  ................      0.02    4.59             0.00    0.00             0.02    4.87
     1  INPUTA  ................      0.00    0.92             0.00    0.00             0.00    0.70
     1  MAINSY  ................      0.00    0.92             0.00   25.00             0.01    2.82
     1  SYMFIT  ................      0.00    0.00             0.00   25.00             0.00    0.34
     1  CORORT  ................      0.00    0.00             0.00    0.00             0.00    0.31
     1  SYMORB  ................      0.00    0.00             0.00    0.00             0.00    0.18
     1  CLSMAT  ................      0.00    0.92             0.00    0.00             0.01    1.20
     1  ORTHON  ................      0.01    1.83             0.00    0.00             0.01    1.08
     1  GENPT   ................      0.01    2.75             0.00    0.00             0.01    3.09
     1  PTBAS   ................      0.00    0.92             0.00    0.00             0.01    1.15
    11  FOCKY   ................      0.02   55.96             0.00   25.00             0.02   51.42
    11  FOCKTR  ................      0.00    0.92             0.00    0.00             0.00    1.56
    11  SDIIS   ................      0.00    5.50             0.00    0.00             0.00    6.30
     1  COREPS  ................      0.02    3.67             0.00    0.00             0.02    3.64
     1  POPAN   ................      0.00    0.92             0.00    0.00             0.01    1.13
     1  DEBYE   ................      0.00    0.00             0.00    0.00             0.00    0.39
     1  EXIT PROCEDURE .........      0.02    3.67             0.00    0.00             0.01    2.77


 Currently Open Files (EXIT00)
 ====================

 Unit    Access Format  Status   Type       Ident (file)
 -------------------------------------------------------
   3      SEQ    FORM   TRANSP  NORMAL      LOGFILE
                                          ( logfile )

 ***************************************************************************************************
 (LOGFILE)
 <Oct21-2020> <00:24:21>  DIRAC 2019  RunTime: Oct21-2020 00:24:21  Nodes: 1  Procs: 1
 <Oct21-2020> <00:24:21>  NORMAL TERMINATION
 <Oct21-2020> <00:24:21>  END
 <Oct21-2020> <00:24:21>  ADF 2019  RunTime: Oct21-2020 00:24:21  Nodes: 1  Procs: 1
 <Oct21-2020> <00:24:21>  Hydrogen (TZP)
 <Oct21-2020> <00:24:21>  RunType   : CREATE
 <Oct21-2020> <00:24:21>  Net Charge: 0 (Nuclei minus Electrons)
 <Oct21-2020> <00:24:21>  Symmetry  : ATOM
  Coordinates
    Atom         X           Y           Z   (Angstrom)
    1.H         0.000000    0.000000    0.000000
 <Oct21-2020> <00:24:21>  >>>> CORORT
 <Oct21-2020> <00:24:21>  >>>> CLSMAT
 <Oct21-2020> <00:24:21>  >>>> ORTHON
 <Oct21-2020> <00:24:21>  >>>> GENPT
 <Oct21-2020> <00:24:21>  Block Length=  64
 <Oct21-2020> <00:24:21>  >>>> PTBAS
 <Oct21-2020> <00:24:21>  >>>> CYCLE
 <Oct21-2020> <00:24:22>              |Error|         MaxErr       Wt(A-DIIS)
 <Oct21-2020> <00:24:22>      1      0.00000000      0.00000000
 <Oct21-2020> <00:24:22>      2      0.03153787      0.03011049
 <Oct21-2020> <00:24:22>      3      0.00861799      0.00834303    100.0
 <Oct21-2020> <00:24:22>      4      0.00173235      0.00171862      0.7
 <Oct21-2020> <00:24:22>      5      0.00004367      0.00003977      0.0
 <Oct21-2020> <00:24:22>      6      0.00000238      0.00000216      0.0
 <Oct21-2020> <00:24:22>      7      0.00000001      0.00000001      0.0
 <Oct21-2020> <00:24:22>  SCF converged
 <Oct21-2020> <00:24:22>      8      0.00000000      0.00000000      0.0
 <Oct21-2020> <00:24:22>  >>>> POPAN
 <Oct21-2020> <00:24:22>  >>>> DEBYE
 <Oct21-2020> <00:24:22>  NORMAL TERMINATION
 <Oct21-2020> <00:24:22>  END
 <Oct21-2020> <00:24:22>  DIRAC 2019  RunTime: Oct21-2020 00:24:22  Nodes: 1  Procs: 1
 <Oct21-2020> <00:24:22>  NORMAL TERMINATION
 <Oct21-2020> <00:24:22>  END
 <Oct21-2020> <00:24:22>  ADF 2019  RunTime: Oct21-2020 00:24:22  Nodes: 1  Procs: 1
 <Oct21-2020> <00:24:22>  Oxygen (TZP, 1s frozen)
 <Oct21-2020> <00:24:22>  RunType   : CREATE
 <Oct21-2020> <00:24:22>  Net Charge: 0 (Nuclei minus Electrons)
 <Oct21-2020> <00:24:22>  Symmetry  : ATOM
  Coordinates
    Atom         X           Y           Z   (Angstrom)
    1.O         0.000000    0.000000    0.000000
 <Oct21-2020> <00:24:22>  >>>> CORORT
 <Oct21-2020> <00:24:22>  >>>> CLSMAT
 <Oct21-2020> <00:24:22>  >>>> ORTHON
 <Oct21-2020> <00:24:22>  >>>> GENPT
 <Oct21-2020> <00:24:22>  Block Length=  68
 <Oct21-2020> <00:24:22>  >>>> PTBAS
 <Oct21-2020> <00:24:22>  >>>> CYCLE
 <Oct21-2020> <00:24:22>              |Error|         MaxErr       Wt(A-DIIS)
 <Oct21-2020> <00:24:22>      1      0.00000000      0.00000000
 <Oct21-2020> <00:24:22>      2      4.56299337      2.52897111
 <Oct21-2020> <00:24:22>      3      2.72315525      1.79866705    100.0
 <Oct21-2020> <00:24:22>      4      0.28902714      0.13064862    100.0
 <Oct21-2020> <00:24:22>      5      0.41661509      0.23264367    100.0
 <Oct21-2020> <00:24:22>      6      0.01372327      0.00671904      5.8
 <Oct21-2020> <00:24:22>      7      0.00110365      0.00063404      0.0
 <Oct21-2020> <00:24:22>      8      0.00003592      0.00002026      0.0
 <Oct21-2020> <00:24:22>      9      0.00000033      0.00000018      0.0
 <Oct21-2020> <00:24:22>     10      0.00000000      0.00000000      0.0
 <Oct21-2020> <00:24:22>  SCF converged
 <Oct21-2020> <00:24:22>     11      0.00000000      0.00000000      0.0
 <Oct21-2020> <00:24:22>  >>>> POPAN
 <Oct21-2020> <00:24:22>  >>>> DEBYE
 <Oct21-2020> <00:24:22>  NORMAL TERMINATION
 <Oct21-2020> <00:24:22>  END

 *******************************************************************************
 *                                                                             *
 *  -------------------------------------                                      *
 *   Amsterdam Density Functional  (ADF)         2019                          *
 *  -------------------------------------                                      *
 *                                               r79301 2019-11-09             *
 *                                                                             *
 *                                                                             *
 *                            =====================                            *
 *                            |                   |                            *
 *                            |     D I R A C     |                            *
 *                            |                   |                            *
 *                            =====================                            *
 *                                                                             *
 *                                                                             *
 *   Online information and documentation:  https://www.scm.com/support/       *
 *   E-mail:  support@scm.com   info@scm.com                                   *
 *                                                                             *
 *   Scientific publications using ADF results must be properly referenced     *
 *   See the User Manuals (or the web site) for recommended citations          *
 *   The terms and conditions of the End User License Agreement apply to       *
 *   the use of ADF, https://www.scm.com/license-terms/                        *
 *                                                                             *
 **********************  x86_64_linux_intel / intelmpi  ************************
 
 
 
  
 DIRAC 2019  RunTime: Oct21-2020 00:24:23  Nodes: 1  Procs: 1

 Temporary files are created in /scratch/kid_0.1768047174 (0x58465342)

1
 TUNGSTEN ATOM 4d CORE RELATIVISTIC, Point Nuc, A and c from 
 N J RN H ZN XION ANUC CLIGHT
 5000   22100.00000000197.36710137 74.00000000  0.00000000  183.950932  0.1370360E+03
  PH   PHI     EPS        DEL        DELRVR
  0.30  0.30     2500.00  0.00001000  0.00001000
 IDIRC  NC1  NDEBU NPRIN  IPUN IRCOR IWCOR
   1   300     0     0     0     0    14
   XALPHA      XLATTER      RNUC
  0.70000000  0.00000000  0.00000000 Point Charge
   XN   XL   XJ      XE          XZ      XDELL
  1.0  0.0  0.5   -2600.000       2.000     0.00000
  2.0  0.0  0.5    -425.000       2.000     0.00000
  2.0  1.0  0.5    -425.000       2.000     0.00000
  2.0  1.0  1.5    -425.000       4.000     0.00000
  3.0  0.0  0.5    -100.000       2.000     0.00000
  3.0  1.0  0.5    -100.000       2.000     0.00000
  3.0  1.0  1.5    -100.000       4.000     0.00000
  3.0  2.0  1.5     -80.000       4.000     0.00000
  3.0  2.0  2.5     -80.000       6.000     0.00000
  4.0  0.0  0.5     -22.000       2.000     0.00000
  4.0  1.0  0.5     -20.000       2.000     0.00000
  4.0  1.0  1.5     -20.000       4.000     0.00000
  4.0  2.0  1.5     -11.000       4.000     0.00000
  4.0  2.0  2.5     -11.000       6.000     0.00000
  4.0  3.0  2.5      -1.000       6.000     0.00000
  4.0  3.0  3.5      -1.000       8.000     0.00000
  5.0  0.0  0.5      -3.000       2.000     0.00000
  5.0  1.0  0.5      -2.200       2.000     0.00000
  5.0  1.0  1.5      -2.200       4.000     0.00000
  5.0  2.0  1.5      -0.500       4.000     0.00000
  5.0  2.0  2.5      -0.500       0.000     0.00000
  6.0  0.0  0.5      -0.200       2.000     0.00000
 ICORP=  0  NPCL=  0  DEMP=0.00  PEPS=0.000000
 R(1)=  0.1000000E-08 D=  0.1005080E+01 RNUC=  0.0000000E+00
 converged at cycle   63  DENSITY AVERAGING    0.1536
  MAXIMUM ERROR IN R.V(R) IS   0.78838062E-05
 Q,EY,EV,EZ,ESUM,ETOT,RHO  0.740000E+02 -0.431420E+03 -0.281568E+05 -0.403919E+05 -0.993885E+04 -0.161643E+05  0.726391E-09


 DIRAC CALCULATION
1                    TUNGSTEN ATOM 4d CORE RELATIVISTIC, Point Nuc, A and c from libtc


 EXCHANGE COEFFICIENT=  0.7000000           TAIL CORRECTION=  0.           NUCLEAR RADIUS=  0.000E+00
0                       ORBITAL    N    L    J     ELECTRONS     EIGENVALUE                DELTA OF EIGENV.

                          1S1/2  1.0  0.0  0.5     2.000       -0.2549514E+04                 0.5980248E-04
                          2S1/2  2.0  0.0  0.5     2.000       -0.4399118E+03                 0.5052420E-04
                          2P1/2  2.0  1.0  0.5     2.000       -0.4208427E+03                 0.5265062E-04
                          2P3/2  2.0  1.0  1.5     4.000       -0.3711192E+03                 0.5139441E-04
                          3S1/2  3.0  0.0  0.5     2.000       -0.1012881E+03                 0.3437035E-04
                          3P1/2  3.0  1.0  0.5     2.000       -0.9277148E+02                 0.3553128E-04
                          3P3/2  3.0  1.0  1.5     4.000       -0.8201733E+02                 0.3404634E-04
                          3D3/2  3.0  2.0  1.5     4.000       -0.6762803E+02                 0.3680712E-04
                          3D5/2  3.0  2.0  2.5     6.000       -0.6528623E+02                 0.3629511E-04
                          4S1/2  4.0  0.0  0.5     2.000       -0.2084139E+02                 0.1939427E-04
                          4P1/2  4.0  1.0  0.5     2.000       -0.1730737E+02                 0.1933978E-04
                          4P3/2  4.0  1.0  1.5     4.000       -0.1480597E+02                 0.1810922E-04
                          4D3/2  4.0  2.0  1.5     4.000       -0.8989319E+01                 0.1779394E-04
                          4D5/2  4.0  2.0  2.5     6.000       -0.8528007E+01                 0.1741170E-04
                          4F5/2  4.0  3.0  2.5     6.000       -0.1237480E+01                 0.1544089E-04
                          4F7/2  4.0  3.0  3.5     8.000       -0.1154634E+01                 0.1522033E-04
                          5S1/2  5.0  0.0  0.5     2.000       -0.2863514E+01                 0.7979521E-05
                          5P1/2  5.0  1.0  0.5     2.000       -0.1813289E+01                 0.7246225E-05
                          5P3/2  5.0  1.0  1.5     4.000       -0.1448762E+01                 0.6602120E-05
                          5D3/2  5.0  2.0  1.5     4.000       -0.1486933E+00                 0.3973088E-05
                          5D5/2  5.0  2.0  2.5     0.000       -0.1223153E+00                 0.3735081E-05
                          6S1/2  6.0  0.0  0.5     2.000       -0.1847434E+00                 0.1808440E-05


                                        NUCLEAR CHARGE=   74.000000
                            INTEGRAL OF CHARGE DENSITY=   74.000000
                           SUM OF THE ORBITAL ENERGIES=  -9938.8529
                                          TOTAL ENERGY= -16164.2530
                                        KINETIC ENERGY=  18217.9700
                             NUCLEAR ATTRACTION ENERGY= -40391.9132
                             ELECTRON REPULSION ENERGY=   6333.2551
                                       EXCHANGE ENERGY=   -323.5649

 *******************************************************************************

                             D I R A C   E X I T
 NORMAL TERMINATION



 =================
 Timing Statistics
 =================
  
 Total Used :                     CPU=        0.67      System=        0.01     Elapsed=        0.69

 Calls  Section                     ( Mean, Percentage )
 ---------------------------------------------------------------------------------------------------
     2  ><      ................      0.00    0.00             0.00    0.00             0.00    0.00
     1  EXIT PROCEDURE .........      0.67  100.00             0.01  100.00             0.69  100.00


 Currently Open Files (EXIT00)
 ====================

 Unit    Access Format  Status   Type       Ident (file)
 -------------------------------------------------------
   3      SEQ    FORM   TRANSP  NORMAL      LOGFILE
                                          ( logfile )
 
Create W   file=TZP-W.4d
XC
  GGA PBE
End
relativistic ZORA
Corepotentials t12.rel
End

 *******************************************************************************
 *                                                                             *
 *  -------------------------------------                                      *
 *   Amsterdam Density Functional  (ADF)         2019                          *
 *  -------------------------------------                                      *
 *                                               r79301 2019-11-09             *
 *                                                                             *
 *                                                                             *
 *                              =================                              *
 *                              |               |                              *
 *                              |     A D F     |                              *
 *                              |               |                              *
 *                              =================                              *
 *                                                                             *
 *                                                                             *
 *   Online information and documentation:  https://www.scm.com/support/       *
 *   E-mail:  support@scm.com   info@scm.com                                   *
 *                                                                             *
 *   Scientific publications using ADF results must be properly referenced     *
 *   See the User Manuals (or the web site) for recommended citations          *
 *   The terms and conditions of the End User License Agreement apply to       *
 *   the use of ADF, https://www.scm.com/license-terms/                        *
 *                                                                             *
 **********************  x86_64_linux_intel / intelmpi  ************************
 
 
 
  
 ADF 2019  RunTime: Oct21-2020 00:24:23  Nodes: 1  Procs: 1

 Temporary files are created in /scratch/kid_0.910973981 (0x58465342)

 Tungsten (TZP, 4d frozen)



 ===========================
 A T T A C H E D   F I L E S
 ===========================
  
 CREATE - Data File:    TZP-W.4d
                        Tungsten (TZP, 4d frozen)
 Core Potentials:
         file : t12.rel



 ===============================
 M O D E L   P A R A M E T E R S
 ===============================
  
 DENSITY FUNCTIONAL POTENTIAL (scf)
    LDA:                               PW92                                    == Not Default ==
    Gradient Corrections:              PBEc PBEx                               == Not Default ==

 SPIN  (restricted / unrestr.)
    Molecule:                          Restricted                               

 OTHER ASPECTS
    Relativistic Corrections:          scalar (ZORA,MAPA)                      == Not Default ==

    Nuclear Charge Density Model:      Point Charge Nuclei                      
    Core Treatment:                    Frozen Orbital(s)                        

    Hyperfine or Zeeman Interaction:   ---                                      



 =====================================
 S Y M M E T R Y ,   E L E C T R O N S
 =====================================
  
 Symmetry: ATOM

 Irreducible Representations, including subspecies
 -------------------------------------------------
 S
 P:x  P:y  P:z
 D:z2  D:x2-y2  D:xy  D:xz  D:yz
 F:z3  F:z  F:xyz  F:z2x  F:z2y  F:x  F:y


 Configuration of Valence Electrons
 ==================================

          Occupation Numbers
          -------------------------------------------------
 S        2*2
 P        6
 D        4
 F        14
          -------------------------------------------------

 Total:   28

 Net Charge: 0 (Nuclei minus Electrons)

 Preset values for MO occupations will be applied through SCF cycle no. 1000000
 Thereafter, the program will assign electrons to MOs that are spatially
 similar to the occupied MOs in a "reference" cycle ("KeepOrbitals").
 The reference cycle is always the PREVIOUS cycle: it will evolve with
 the SCF procedure.



 ================================
 (Slater-type)  F U N C T I O N S  ***  (Basis and Fit)  ***
 ================================
  

 Atom Type    1  (W)
 ==============

 Valence Basis Sets:  25
 -----------------------
   1 S   52.000000
   2 S   33.250000
   3 S   19.100000
   4 S   11.650000
   2 P   36.850000
   3 P   16.500000
   4 P   11.550000
   3 D   20.100000
   4 D   10.300000
   1 S  163.900000
   5 S    6.050000
   5 S    3.950000
   6 S    2.850000
   6 S    1.800000
   6 S    1.140000
   5 P    5.900000
   5 P    4.000000
   5 P    2.700000
   5 D    4.150000
   5 D    2.250000
   5 D    1.200000
   4 F   13.550000
   4 F    7.050000
   4 F    3.550000
   6 P    1.800000

 Frozen Core Shells
 ------------------
    S:  4
    P:  3
    D:  2


 BAS: List of all Elementary Cartesian Basis Functions
 =====================================================

 The numbering in the list below (to the right of the function characteristics) is referred
 to in print-outs of MO eigenvectors and Mulliken populations in the BAS representation
 (as contrasted to the SFO representation).

 Notes:
 1. The functions are characterized by a polynomial prefactor (powers of x,y,z and r) and
    an exponential decay factor alpha.
 2. Since the basis sets are specific for an atom TYPE, the individual functions occur on
    all atoms of that type.
 3. The word 'Core' in the left margin signals that it is a Core Function (CF) : not a
    degree of freedom in the valence set, but only used to ensure orthogonalization of
    the other valence basis functions on the frozen Core Orbitals.


 (power of) X  Y  Z  R     Alpha  on Atom
            ==========     =====     ==========

 W                                    1
                                  ---------------------------------------------------------------------------
    Core    0  0  0  0    52.000      1
    Core    0  0  0  1    33.250      2
    Core    0  0  0  2    19.100      3
    Core    0  0  0  3    11.650      4
    Core    1  0  0  0    36.850      5
    Core    0  1  0  0    36.850      6
    Core    0  0  1  0    36.850      7
    Core    1  0  0  1    16.500      8
    Core    0  1  0  1    16.500      9
    Core    0  0  1  1    16.500     10
    Core    1  0  0  2    11.550     11
    Core    0  1  0  2    11.550     12
    Core    0  0  1  2    11.550     13
    Core    2  0  0  0    20.100     14
    Core    1  1  0  0    20.100     15
    Core    1  0  1  0    20.100     16
    Core    0  2  0  0    20.100     17
    Core    0  1  1  0    20.100     18
    Core    0  0  2  0    20.100     19
    Core    2  0  0  1    10.300     20
    Core    1  1  0  1    10.300     21
    Core    1  0  1  1    10.300     22
    Core    0  2  0  1    10.300     23
    Core    0  1  1  1    10.300     24
    Core    0  0  2  1    10.300     25
            0  0  0  0   163.900     26
            0  0  0  4     6.050     27
            0  0  0  4     3.950     28
            0  0  0  5     2.850     29
            0  0  0  5     1.800     30
            0  0  0  5     1.140     31
            1  0  0  3     5.900     32
            0  1  0  3     5.900     33
            0  0  1  3     5.900     34
            1  0  0  3     4.000     35
            0  1  0  3     4.000     36
            0  0  1  3     4.000     37
            1  0  0  3     2.700     38
            0  1  0  3     2.700     39
            0  0  1  3     2.700     40
            2  0  0  2     4.150     41
            1  1  0  2     4.150     42
            1  0  1  2     4.150     43
            0  2  0  2     4.150     44
            0  1  1  2     4.150     45
            0  0  2  2     4.150     46
            2  0  0  2     2.250     47
            1  1  0  2     2.250     48
            1  0  1  2     2.250     49
            0  2  0  2     2.250     50
            0  1  1  2     2.250     51
            0  0  2  2     2.250     52
            2  0  0  2     1.200     53
            1  1  0  2     1.200     54
            1  0  1  2     1.200     55
            0  2  0  2     1.200     56
            0  1  1  2     1.200     57
            0  0  2  2     1.200     58
            3  0  0  0    13.550     59
            2  1  0  0    13.550     60
            2  0  1  0    13.550     61
            1  2  0  0    13.550     62
            1  1  1  0    13.550     63
            1  0  2  0    13.550     64
            0  3  0  0    13.550     65
            0  2  1  0    13.550     66
            0  1  2  0    13.550     67
            0  0  3  0    13.550     68
            3  0  0  0     7.050     69
            2  1  0  0     7.050     70
            2  0  1  0     7.050     71
            1  2  0  0     7.050     72
            1  1  1  0     7.050     73
            1  0  2  0     7.050     74
            0  3  0  0     7.050     75
            0  2  1  0     7.050     76
            0  1  2  0     7.050     77
            0  0  3  0     7.050     78
            3  0  0  0     3.550     79
            2  1  0  0     3.550     80
            2  0  1  0     3.550     81
            1  2  0  0     3.550     82
            1  1  1  0     3.550     83
            1  0  2  0     3.550     84
            0  3  0  0     3.550     85
            0  2  1  0     3.550     86
            0  1  2  0     3.550     87
            0  0  3  0     3.550     88
            1  0  0  4     1.800     89
            0  1  0  4     1.800     90
            0  0  1  4     1.800     91

 Total number of charge fitting functions (nprimf)       329
 Total number of Cartesian basis functions (naos)         91
 Total number of Cartesian core functions  (ncos)         25



 BAS: List of all Elementary Cartesian Basis Functions
 =====================================================

 The numbering in the list below (to the right of the function characteristics) is referred
 to in print-outs of MO eigenvectors and Mulliken populations in the BAS representation
 (as contrasted to the SFO representation).

 Notes:
 1. The functions are characterized by a polynomial prefactor (powers of x,y,z and r) and
    an exponential decay factor alpha.
 2. Since the basis sets are specific for an atom TYPE, the individual functions occur on
    all atoms of that type.
 3. The word 'Core' in the left margin signals that it is a Core Function (CF) : not a
    degree of freedom in the valence set, but only used to ensure orthogonalization of
    the other valence basis functions on the frozen Core Orbitals.


 (power of) X  Y  Z  R     Alpha  on Atom
            ==========     =====     ==========

 W                                    1
                                  ---------------------------------------------------------------------------
    Core    0  0  0  0    52.000      1
    Core    0  0  0  1    33.250      2
    Core    0  0  0  2    19.100      3
    Core    0  0  0  3    11.650      4
    Core    1  0  0  0    36.850      5
    Core    0  1  0  0    36.850      6
    Core    0  0  1  0    36.850      7
    Core    1  0  0  1    16.500      8
    Core    0  1  0  1    16.500      9
    Core    0  0  1  1    16.500     10
    Core    1  0  0  2    11.550     11
    Core    0  1  0  2    11.550     12
    Core    0  0  1  2    11.550     13
    Core    2  0  0  0    20.100     14
    Core    1  1  0  0    20.100     15
    Core    1  0  1  0    20.100     16
    Core    0  2  0  0    20.100     17
    Core    0  1  1  0    20.100     18
    Core    0  0  2  0    20.100     19
    Core    2  0  0  1    10.300     20
    Core    1  1  0  1    10.300     21
    Core    1  0  1  1    10.300     22
    Core    0  2  0  1    10.300     23
    Core    0  1  1  1    10.300     24
    Core    0  0  2  1    10.300     25
            0  0  0  0   163.900     26
            0  0  0  4     6.050     27
            0  0  0  4     3.950     28
            0  0  0  5     2.850     29
            0  0  0  5     1.800     30
            0  0  0  5     1.140     31
            1  0  0  3     5.900     32
            0  1  0  3     5.900     33
            0  0  1  3     5.900     34
            1  0  0  3     4.000     35
            0  1  0  3     4.000     36
            0  0  1  3     4.000     37
            1  0  0  3     2.700     38
            0  1  0  3     2.700     39
            0  0  1  3     2.700     40
            2  0  0  2     4.150     41
            1  1  0  2     4.150     42
            1  0  1  2     4.150     43
            0  2  0  2     4.150     44
            0  1  1  2     4.150     45
            0  0  2  2     4.150     46
            2  0  0  2     2.250     47
            1  1  0  2     2.250     48
            1  0  1  2     2.250     49
            0  2  0  2     2.250     50
            0  1  1  2     2.250     51
            0  0  2  2     2.250     52
            2  0  0  2     1.200     53
            1  1  0  2     1.200     54
            1  0  1  2     1.200     55
            0  2  0  2     1.200     56
            0  1  1  2     1.200     57
            0  0  2  2     1.200     58
            3  0  0  0    13.550     59
            2  1  0  0    13.550     60
            2  0  1  0    13.550     61
            1  2  0  0    13.550     62
            1  1  1  0    13.550     63
            1  0  2  0    13.550     64
            0  3  0  0    13.550     65
            0  2  1  0    13.550     66
            0  1  2  0    13.550     67
            0  0  3  0    13.550     68
            3  0  0  0     7.050     69
            2  1  0  0     7.050     70
            2  0  1  0     7.050     71
            1  2  0  0     7.050     72
            1  1  1  0     7.050     73
            1  0  2  0     7.050     74
            0  3  0  0     7.050     75
            0  2  1  0     7.050     76
            0  1  2  0     7.050     77
            0  0  3  0     7.050     78
            3  0  0  0     3.550     79
            2  1  0  0     3.550     80
            2  0  1  0     3.550     81
            1  2  0  0     3.550     82
            1  1  1  0     3.550     83
[...]
 <Oct21-2020> <00:38:23>  constrained gradient rms            0.00039549     0.00066667    T
 <Oct21-2020> <00:38:23>  gradient max                        0.00150838
 <Oct21-2020> <00:38:23>  gradient rms                        0.00039549
 <Oct21-2020> <00:38:23>  cart. step max                      0.00419692     0.01000000    T
 <Oct21-2020> <00:38:23>  cart. step rms                      0.00138395     0.00666667    T
  Coordinates in Geometry Cycle 22
    Atom         X           Y           Z   (Angstrom)
    1.W        13.822424   10.555810    2.221011
    2.H        12.998027   12.867515    2.966152
    3.W        11.692420   11.389788    4.724246
    4.W         9.470179   10.548570    2.288873
    5.W        11.675207    8.121185    3.098597
    6.O        13.578963   10.440913    0.465970
    7.O        13.526667    8.676990    2.633558
    8.O         9.628273   12.273125    1.848042
    9.O        13.482373   10.909992    4.309544
   10.O        15.586317   10.565444    2.407497
   11.O        11.643418   10.255290    2.824358
   12.O        11.656715    6.746757    1.966685
   13.O         9.879280   11.053827    4.345741
   14.O         7.714366   10.334132    2.584667
   15.O         9.762424    9.749394    0.708696
   16.O         9.877832    8.531245    3.189787
   17.O        11.821737   13.158464    4.511483
   18.O        11.693855   11.054697    6.469821
   19.O        11.989455    7.470089    4.716394
   20.O        13.412218   12.510550    2.144729
 <Oct21-2020> <00:38:23>  >>>> CORORT
 <Oct21-2020> <00:38:23>  >>>> CLSMAT
 <Oct21-2020> <00:38:23>  >>>> ORTHON
 <Oct21-2020> <00:38:23>  >>>> GENPT
 <Oct21-2020> <00:38:23>  Block Length= 128
 <Oct21-2020> <00:38:23>  >>>> PTBAS
 <Oct21-2020> <00:38:25>  combining surface points...
 <Oct21-2020> <00:38:25>  combining surface points...
 <Oct21-2020> <00:38:25>  combining surface points...
 <Oct21-2020> <00:38:25>  >>>> CYCLE
 <Oct21-2020> <00:38:28>              |Error|         MaxErr       Wt(A-DIIS)
 <Oct21-2020> <00:38:28>      1      0.21370990      0.05612171
 <Oct21-2020> <00:38:29>      2      0.41458946      0.05253915    100.0
 <Oct21-2020> <00:38:31>      3      0.13566173      0.01658611    100.0
 <Oct21-2020> <00:38:32>      4      0.20965239      0.02566057    100.0
 <Oct21-2020> <00:38:34>      5      0.43750631      0.06355663    100.0
 <Oct21-2020> <00:38:36>      6      0.11684371      0.01460900     13.7
 <Oct21-2020> <00:38:37>      7      0.07648375      0.01105757     10.2
 <Oct21-2020> <00:38:39>      8      0.02485489      0.00387205      2.9
 <Oct21-2020> <00:38:40>      9      0.00836885      0.00161513      0.6
 <Oct21-2020> <00:38:42>     10      0.00373762      0.00045723      0.0
 <Oct21-2020> <00:38:43>     11      0.00179872      0.00025546      0.0
 <Oct21-2020> <00:38:45>     12      0.00090147      0.00017128      0.0
 <Oct21-2020> <00:38:46>     13      0.00022211      0.00003663      0.0
 <Oct21-2020> <00:38:47>     14      0.00011395      0.00001789      0.0
 <Oct21-2020> <00:38:49>     15      0.00005231      0.00000736      0.0
 <Oct21-2020> <00:38:50>     16      0.00002657      0.00000422      0.0
 <Oct21-2020> <00:38:52>     17      0.00000940      0.00000130      0.0
 <Oct21-2020> <00:38:53>     18      0.00001178      0.00000194      0.0
 <Oct21-2020> <00:38:55>     19      0.00000255      0.00000042      0.0
 <Oct21-2020> <00:38:55>  SCF converged
 <Oct21-2020> <00:38:56>     20      0.00000033      0.00000005      0.0
 <Oct21-2020> <00:38:57>  >>>> TOTEN
 <Oct21-2020> <00:38:59>  >>>> POPAN
 <Oct21-2020> <00:38:59>  >>>> DEBYE
 <Oct21-2020> <00:38:59>  >>>> ENGRAD
 <Oct21-2020> <00:39:03>  current energy                               -6.66333207 Hartree
 <Oct21-2020> <00:39:03>  energy change                      -0.00001678     0.00100000    T
 <Oct21-2020> <00:39:03>  constrained gradient max            0.00137988     0.00100000    F
 <Oct21-2020> <00:39:03>  constrained gradient rms            0.00034287     0.00066667    T
 <Oct21-2020> <00:39:03>  gradient max                        0.00137988
 <Oct21-2020> <00:39:03>  gradient rms                        0.00034287
 <Oct21-2020> <00:39:03>  cart. step max                      0.00302264     0.01000000    T
 <Oct21-2020> <00:39:03>  cart. step rms                      0.00104349     0.00666667    T
  Coordinates in Geometry Cycle 23
    Atom         X           Y           Z   (Angstrom)
    1.W        13.823699   10.556226    2.222194
    2.H        13.001050   12.868225    2.965698
    3.W        11.692148   11.390171    4.722904
    4.W         9.469042   10.548890    2.289708
    5.W        11.675348    8.120399    3.098395
    6.O        13.580970   10.441533    0.467133
    7.O        13.525624    8.676988    2.634009
    8.O         9.625335   12.273622    1.848797
    9.O        13.483010   10.911690    4.309139
   10.O        15.587488   10.563891    2.408384
   11.O        11.642375   10.255396    2.824412
   12.O        11.655773    6.746417    1.965911
   13.O         9.878100   11.054077    4.345634
   14.O         7.713345   10.332690    2.585095
   15.O         9.762819    9.749937    0.709514
   16.O         9.877838    8.530979    3.190358
   17.O        11.820212   13.158865    4.511170
   18.O        11.694652   11.054709    6.468275
   19.O        11.990028    7.467990    4.715679
   20.O        13.413297   12.511083    2.143438
 <Oct21-2020> <00:39:03>  >>>> CORORT
 <Oct21-2020> <00:39:04>  >>>> CLSMAT
 <Oct21-2020> <00:39:04>  >>>> ORTHON
 <Oct21-2020> <00:39:04>  >>>> GENPT
 <Oct21-2020> <00:39:04>  Block Length= 128
 <Oct21-2020> <00:39:04>  >>>> PTBAS
 <Oct21-2020> <00:39:05>  combining surface points...
 <Oct21-2020> <00:39:05>  combining surface points...
 <Oct21-2020> <00:39:05>  combining surface points...
 <Oct21-2020> <00:39:05>  >>>> CYCLE
 <Oct21-2020> <00:39:08>              |Error|         MaxErr       Wt(A-DIIS)
 <Oct21-2020> <00:39:08>      1      0.17771212      0.03313781
 <Oct21-2020> <00:39:10>      2      0.41453456      0.05254775    100.0
 <Oct21-2020> <00:39:11>      3      0.13563219      0.01655333    100.0
 <Oct21-2020> <00:39:13>      4      0.20879166      0.02549731    100.0
 <Oct21-2020> <00:39:14>      5      0.44114940      0.06395572    100.0
 <Oct21-2020> <00:39:16>      6      0.11760425      0.01465305     13.8
 <Oct21-2020> <00:39:18>      7      0.07597376      0.01097089     10.1
 <Oct21-2020> <00:39:19>      8      0.02495563      0.00390962      2.9
 <Oct21-2020> <00:39:21>      9      0.00837444      0.00161724      0.6
 <Oct21-2020> <00:39:22>     10      0.00373746      0.00046696      0.0
 <Oct21-2020> <00:39:24>     11      0.00180088      0.00025895      0.0
 <Oct21-2020> <00:39:25>     12      0.00090602      0.00017333      0.0
 <Oct21-2020> <00:39:27>     13      0.00022247      0.00003620      0.0
 <Oct21-2020> <00:39:28>     14      0.00011338      0.00001795      0.0
 <Oct21-2020> <00:39:29>     15      0.00005228      0.00000730      0.0
 <Oct21-2020> <00:39:31>     16      0.00002651      0.00000422      0.0
 <Oct21-2020> <00:39:32>     17      0.00000918      0.00000125      0.0
 <Oct21-2020> <00:39:34>     18      0.00001128      0.00000188      0.0
 <Oct21-2020> <00:39:35>     19      0.00000251      0.00000042      0.0
 <Oct21-2020> <00:39:36>  SCF converged
 <Oct21-2020> <00:39:37>     20      0.00000033      0.00000005      0.0
 <Oct21-2020> <00:39:37>  >>>> TOTEN
 <Oct21-2020> <00:39:39>  >>>> POPAN
 <Oct21-2020> <00:39:39>  >>>> DEBYE
 <Oct21-2020> <00:39:39>  >>>> ENGRAD
 <Oct21-2020> <00:39:44>  current energy                               -6.66334591 Hartree
 <Oct21-2020> <00:39:44>  energy change                      -0.00001383     0.00100000    T
 <Oct21-2020> <00:39:44>  constrained gradient max            0.00088348     0.00100000    T
 <Oct21-2020> <00:39:44>  constrained gradient rms            0.00024468     0.00066667    T
 <Oct21-2020> <00:39:44>  gradient max                        0.00088348
 <Oct21-2020> <00:39:44>  gradient rms                        0.00024468
 <Oct21-2020> <00:39:44>  cart. step max                      0.00306345     0.01000000    T
 <Oct21-2020> <00:39:44>  cart. step rms                      0.00091423     0.00666667    T
 <Oct21-2020> <00:39:44>  GEOMETRY CONVERGED
 <Oct21-2020> <00:39:44>  Calculating Energy Terms for Final Geometry
  Coordinates in Geometry Cycle 23
    Atom         X           Y           Z   (Angstrom)
    1.W        13.823699   10.556226    2.222194
    2.H        13.001050   12.868225    2.965698
    3.W        11.692148   11.390171    4.722904
    4.W         9.469042   10.548890    2.289708
    5.W        11.675348    8.120399    3.098395
    6.O        13.580970   10.441533    0.467133
    7.O        13.525624    8.676988    2.634009
    8.O         9.625335   12.273622    1.848797
    9.O        13.483010   10.911690    4.309139
   10.O        15.587488   10.563891    2.408384
   11.O        11.642375   10.255396    2.824412
   12.O        11.655773    6.746417    1.965911
   13.O         9.878100   11.054077    4.345634
   14.O         7.713345   10.332690    2.585095
   15.O         9.762819    9.749937    0.709514
   16.O         9.877838    8.530979    3.190358
   17.O        11.820212   13.158865    4.511170
   18.O        11.694652   11.054709    6.468275
   19.O        11.990028    7.467990    4.715679
   20.O        13.413297   12.511083    2.143438
 <Oct21-2020> <00:39:44>  >>>> CORORT
 <Oct21-2020> <00:39:44>  >>>> CLSMAT
 <Oct21-2020> <00:39:44>  >>>> ORTHON
 <Oct21-2020> <00:39:44>  >>>> GENPT
 <Oct21-2020> <00:39:44>  Block Length= 128
 <Oct21-2020> <00:39:44>  >>>> PTBAS
 <Oct21-2020> <00:39:46>  combining surface points...
 <Oct21-2020> <00:39:46>  combining surface points...
 <Oct21-2020> <00:39:46>  combining surface points...
 <Oct21-2020> <00:39:46>  >>>> CYCLE
 <Oct21-2020> <00:39:49>              |Error|         MaxErr       Wt(A-DIIS)
 <Oct21-2020> <00:39:49>      1      0.12925671      0.01638585
 <Oct21-2020> <00:39:50>      2      0.41543915      0.06958307    100.0
 <Oct21-2020> <00:39:52>      3      0.13567857      0.01914660    100.0
 <Oct21-2020> <00:39:54>      4      0.20614700      0.03286313    100.0
 <Oct21-2020> <00:39:55>      5      0.45192750      0.08339164    100.0
 <Oct21-2020> <00:39:57>      6      0.11933081      0.01865212     17.8
 <Oct21-2020> <00:39:58>      7      0.08130778      0.01535457     14.5
 <Oct21-2020> <00:40:00>      8      0.03092756      0.00643625      5.5
 <Oct21-2020> <00:40:01>      9      0.00930879      0.00182914      0.8
 <Oct21-2020> <00:40:03>     10      0.00378420      0.00063498      0.0
 <Oct21-2020> <00:40:04>     11      0.00182265      0.00030856      0.0
 <Oct21-2020> <00:40:06>     12      0.00089285      0.00022145      0.0
 <Oct21-2020> <00:40:07>     13      0.00022650      0.00004275      0.0
 <Oct21-2020> <00:40:09>     14      0.00012027      0.00001953      0.0
 <Oct21-2020> <00:40:10>     15      0.00005688      0.00000967      0.0
 <Oct21-2020> <00:40:12>     16      0.00002895      0.00000382      0.0
 <Oct21-2020> <00:40:13>     17      0.00001402      0.00000174      0.0
 <Oct21-2020> <00:40:14>     18      0.00001933      0.00000264      0.0
 <Oct21-2020> <00:40:16>     19      0.00000336      0.00000053      0.0
 <Oct21-2020> <00:40:16>  SCF converged
 <Oct21-2020> <00:40:17>     20      0.00000053      0.00000009      0.0
 <Oct21-2020> <00:40:19>  >>>> TOTEN
 <Oct21-2020> <00:40:22>  QTAIM: determining topology...
 <Oct21-2020> <00:40:25>  >>>> POPAN
 <Oct21-2020> <00:40:25>  >>>> DEBYE
 <Oct21-2020> <00:40:26>  >>>> AMETS
 <Oct21-2020> <00:40:26>  >>>> POPUL
 <Oct21-2020> <00:40:26>   Bond Energy          -6.66334591 a.u.
 <Oct21-2020> <00:40:26>   Bond Energy        -181.31886768 eV
 <Oct21-2020> <00:40:26>   Bond Energy       -4181.31       kcal/mol
 <Oct21-2020> <00:40:26>  >>>> ENHESS
 <Oct21-2020> <00:40:32>  === NUCLEUS:     1
 <Oct21-2020> <00:42:12>  === NUCLEUS:     2
 <Oct21-2020> <00:43:44>  === NUCLEUS:     3
 <Oct21-2020> <00:45:15>  === NUCLEUS:     4
 <Oct21-2020> <00:46:47>  === NUCLEUS:     5
 <Oct21-2020> <00:48:13>  === NUCLEUS:     6
 <Oct21-2020> <00:49:37>  === NUCLEUS:     7
 <Oct21-2020> <00:51:03>  === NUCLEUS:     8
 <Oct21-2020> <00:52:25>  === NUCLEUS:     9
 <Oct21-2020> <00:53:50>  === NUCLEUS:    10
 <Oct21-2020> <00:55:14>  === NUCLEUS:    11
 <Oct21-2020> <00:56:38>  === NUCLEUS:    12
 <Oct21-2020> <00:58:02>  === NUCLEUS:    13
 <Oct21-2020> <00:59:29>  === NUCLEUS:    14
 <Oct21-2020> <01:00:51>  === NUCLEUS:    15
 <Oct21-2020> <01:02:19>  === NUCLEUS:    16
 <Oct21-2020> <01:03:43>  === NUCLEUS:    17
 <Oct21-2020> <01:05:05>  === NUCLEUS:    18
 <Oct21-2020> <01:06:27>  === NUCLEUS:    19
 <Oct21-2020> <01:07:52>  === NUCLEUS:    20
 <Oct21-2020> <01:09:18>  >>>> CALC_HESS_PMAT
 <Oct21-2020> <01:09:32>  >>>> CALC_HESS_WMAT
 <Oct21-2020> <01:09:36>  Symmetry  : NOSYM
 <Oct21-2020> <01:09:36>  >>>> FRAGM
 <Oct21-2020> <01:09:36>  Geometry symmetry displacement    1 out of    2
  Coordinates in Geometry Cycle 23
    Atom         X           Y           Z   (Angstrom)
    1.W        13.823678   10.556187    2.222147
    2.H        13.000546   12.868101    2.965319
    3.W        11.692128   11.390100    4.722937
    4.W         9.469042   10.548960    2.289701
    5.W        11.675406    8.120396    3.098408
    6.O        13.581049   10.441186    0.467092
    7.O        13.525705    8.676970    2.634208
    8.O         9.625367   12.273918    1.849671
    9.O        13.482980   10.911721    4.309119
   10.O        15.587461   10.564005    2.408401
   11.O        11.642389   10.255335    2.824268
   12.O        11.656339    6.746010    1.966394
   13.O         9.878167   11.053334    4.345963
   14.O         7.713355   10.332697    2.585117
   15.O         9.762633    9.750847    0.709059
   16.O         9.877799    8.530788    3.189406
   17.O        11.819838   13.158755    4.510688
   18.O        11.694899   11.055197    6.468418
   19.O        11.989566    7.468627    4.716054
   20.O        13.413152   12.510979    2.143222
 <Oct21-2020> <01:09:36>  >>>> CORORT
 <Oct21-2020> <01:09:36>  >>>> CLSMAT
 <Oct21-2020> <01:09:36>  >>>> ORTHON
 <Oct21-2020> <01:09:37>  >>>> GENPT
 <Oct21-2020> <01:09:37>  Block Length= 128
 <Oct21-2020> <01:09:37>  >>>> PTBAS
 <Oct21-2020> <01:09:38>  combining surface points...
 <Oct21-2020> <01:09:38>  combining surface points...
 <Oct21-2020> <01:09:38>  combining surface points...
 <Oct21-2020> <01:09:38>  >>>> CYCLE
 <Oct21-2020> <01:09:41>              |Error|         MaxErr       Wt(A-DIIS)
 <Oct21-2020> <01:09:41>      1      0.13519715      0.01422965
 <Oct21-2020> <01:09:43>      2      0.41542622      0.05274744    100.0
 <Oct21-2020> <01:09:44>      3      0.13568390      0.01649796    100.0
 <Oct21-2020> <01:09:46>      4      0.20642843      0.02527721    100.0
 <Oct21-2020> <01:09:47>      5      0.45069393      0.06546232    100.0
 <Oct21-2020> <01:09:49>      6      0.11907550      0.01470005     13.8
 <Oct21-2020> <01:09:50>      7      0.07539404      0.01089200     10.0
 <Oct21-2020> <01:09:52>      8      0.02527106      0.00395170      3.0
 <Oct21-2020> <01:09:54>      9      0.00840824      0.00162239      0.6
 <Oct21-2020> <01:09:55>     10      0.00377947      0.00048289      0.0
 <Oct21-2020> <01:09:57>     11      0.00182962      0.00026769      0.0
 <Oct21-2020> <01:09:58>     12      0.00091298      0.00017500      0.0
 <Oct21-2020> <01:09:59>     13      0.00022412      0.00003633      0.0
 <Oct21-2020> <01:10:01>     14      0.00011487      0.00001850      0.0
 <Oct21-2020> <01:10:02>     15      0.00005238      0.00000721      0.0
 <Oct21-2020> <01:10:04>     16      0.00002695      0.00000427      0.0
 <Oct21-2020> <01:10:05>     17      0.00000963      0.00000128      0.0
 <Oct21-2020> <01:10:07>     18      0.00001173      0.00000197      0.0
 <Oct21-2020> <01:10:08>     19      0.00000264      0.00000044      0.0
 <Oct21-2020> <01:10:09>  SCF converged
 <Oct21-2020> <01:10:10>     20      0.00000034      0.00000005      0.0
 <Oct21-2020> <01:10:10>  >>>> TOTEN
 <Oct21-2020> <01:10:11>  >>>> POPAN
 <Oct21-2020> <01:10:11>  >>>> DEBYE
 <Oct21-2020> <01:10:11>  >>>> ENGRAD
 <Oct21-2020> <01:10:16>  Geometry symmetry displacement    2 out of    2
  Coordinates in Geometry Cycle 23
    Atom         X           Y           Z   (Angstrom)
    1.W        13.823721   10.556265    2.222242
    2.H        13.001554   12.868350    2.966077
    3.W        11.692169   11.390242    4.722872
    4.W         9.469042   10.548819    2.289716
    5.W        11.675289    8.120402    3.098381
    6.O        13.580890   10.441880    0.467173
    7.O        13.525544    8.677006    2.633811
    8.O         9.625302   12.273326    1.847924
    9.O        13.483039   10.911659    4.309158
   10.O        15.587515   10.563777    2.408366
   11.O        11.642362   10.255457    2.824556
   12.O        11.655208    6.746823    1.965428
   13.O         9.878032   11.054819    4.345306
   14.O         7.713334   10.332683    2.585074
   15.O         9.763004    9.749028    0.709969
   16.O         9.877878    8.531170    3.191310
   17.O        11.820586   13.158974    4.511652
   18.O        11.694405   11.054222    6.468133
   19.O        11.990490    7.467353    4.715304
   20.O        13.413443   12.511188    2.143655
 <Oct21-2020> <01:10:16>  >>>> CORORT
 <Oct21-2020> <01:10:16>  >>>> CLSMAT
 <Oct21-2020> <01:10:16>  >>>> ORTHON
 <Oct21-2020> <01:10:16>  >>>> GENPT
 <Oct21-2020> <01:10:16>  Block Length= 128
 <Oct21-2020> <01:10:16>  >>>> PTBAS
 <Oct21-2020> <01:10:17>  combining surface points...
 <Oct21-2020> <01:10:17>  combining surface points...
 <Oct21-2020> <01:10:17>  combining surface points...
 <Oct21-2020> <01:10:17>  >>>> CYCLE
 <Oct21-2020> <01:10:20>              |Error|         MaxErr       Wt(A-DIIS)
 <Oct21-2020> <01:10:20>      1      0.15164057      0.02840000
 <Oct21-2020> <01:10:22>      2      0.41542897      0.05273598    100.0
 <Oct21-2020> <01:10:23>      3      0.13566278      0.01648583    100.0
 <Oct21-2020> <01:10:25>      4      0.20561901      0.02515980    100.0
 <Oct21-2020> <01:10:27>      5      0.45425916      0.06589133    100.0
 <Oct21-2020> <01:10:28>      6      0.11986496      0.01470383     13.8
 <Oct21-2020> <01:10:30>      7      0.07487018      0.01080831      9.9
 <Oct21-2020> <01:10:31>      8      0.02531925      0.00396946      3.0
 <Oct21-2020> <01:10:33>      9      0.00841364      0.00162132      0.6
 <Oct21-2020> <01:10:34>     10      0.00377856      0.00048873      0.0
 <Oct21-2020> <01:10:36>     11      0.00183248      0.00026990      0.0
 <Oct21-2020> <01:10:37>     12      0.00091363      0.00017553      0.0
 <Oct21-2020> <01:10:39>     13      0.00022460      0.00003618      0.0
 <Oct21-2020> <01:10:40>     14      0.00011459      0.00001848      0.0
 <Oct21-2020> <01:10:42>     15      0.00005229      0.00000716      0.0
 <Oct21-2020> <01:10:43>     16      0.00002699      0.00000429      0.0
 <Oct21-2020> <01:10:45>     17      0.00000949      0.00000125      0.0
 <Oct21-2020> <01:10:46>     18      0.00001145      0.00000193      0.0
 <Oct21-2020> <01:10:47>     19      0.00000263      0.00000044      0.0
 <Oct21-2020> <01:10:48>  SCF converged
 <Oct21-2020> <01:10:49>     20      0.00000034      0.00000005      0.0
 <Oct21-2020> <01:10:49>  >>>> TOTEN
 <Oct21-2020> <01:10:50>  >>>> POPAN
 <Oct21-2020> <01:10:50>  >>>> DEBYE
 <Oct21-2020> <01:10:50>  >>>> ENGRAD
 <Oct21-2020> <01:10:55>  Old frequency:    -18.60466, new:     17.65758
 <Oct21-2020> <01:10:55>  NOTE: Some frequencies have been re-calculated by numerical differentiation
 <Oct21-2020> <01:10:55>        Check the text output file for new values!
 <Oct21-2020> <01:10:55>  NORMAL TERMINATION
 <Oct21-2020> <01:10:55>  END
