
 *******************************************************************************
 *                                                                             *
 *  -------------------------------------                                      *
 *   Amsterdam Density Functional  (ADF)         2019                          *
 *  -------------------------------------                                      *
 *                                               r79301 2019-11-09             *
 *                                                                             *
 *                                                                             *
 *                            =====================                            *
 *                            |                   |                            *
 *                            |     D I R A C     |                            *
 *                            |                   |                            *
 *                            =====================                            *
 *                                                                             *
 *                                                                             *
 *   Online information and documentation:  https://www.scm.com/support/       *
 *   E-mail:  support@scm.com   info@scm.com                                   *
 *                                                                             *
 *   Scientific publications using ADF results must be properly referenced     *
 *   See the User Manuals (or the web site) for recommended citations          *
 *   The terms and conditions of the End User License Agreement apply to       *
 *   the use of ADF, https://www.scm.com/license-terms/                        *
 *                                                                             *
 **********************  x86_64_linux_intel / intelmpi  ************************
 
 
 
  
 DIRAC 2019  RunTime: Sep08-2020 10:25:31  Nodes: 1  Procs: 1

 Temporary files are created in /scratch/kid_0.1198923993 (0x58465342)

1
 HYDROGEN ATOM RELATIVISTIC, Point Nuc, A and c from libtc   
 N J RN H ZN XION ANUC CLIGHT
 5000    1100.00000000197.36710137  1.00000000  0.00000000    1.007825  0.1370360E+03
  PH   PHI     EPS        DEL        DELRVR
  0.30  0.30     2500.00  0.00001000  0.00001000
 IDIRC  NC1  NDEBU NPRIN  IPUN IRCOR IWCOR
   1   300     0     0     0     0     0
   XALPHA      XLATTER      RNUC
  0.70000000  0.00000000  0.00000000 Point Charge
   XN   XL   XJ      XE          XZ      XDELL
  1.0  0.0  0.5      -1.000       1.000     0.00000
 ICORP=  0  NPCL=  0  DEMP=0.00  PEPS=0.000000
 R(1)=  0.1000000E-08 D=  0.1005080E+01 RNUC=  0.0000000E+00
 converged at cycle   32  DENSITY AVERAGING    0.2400
  MAXIMUM ERROR IN R.V(R) IS   0.79874357E-05
 Q,EY,EV,EZ,ESUM,ETOT,RHO  0.100000E+01 -0.266614E+00 -0.619969E+00 -0.910779E+00 -0.203940E+00 -0.415998E+00  0.337036E-17


 DIRAC CALCULATION
1                    HYDROGEN ATOM RELATIVISTIC, Point Nuc, A and c from libtc


 EXCHANGE COEFFICIENT=  0.7000000           TAIL CORRECTION=  0.           NUCLEAR RADIUS=  0.000E+00
0                       ORBITAL    N    L    J     ELECTRONS     EIGENVALUE                DELTA OF EIGENV.

                          1S1/2  1.0  0.0  0.5     1.000       -0.2039397E+00                 0.2720093E-06


                                        NUCLEAR CHARGE=    1.000000
                            INTEGRAL OF CHARGE DENSITY=    1.000000
                           SUM OF THE ORBITAL ENERGIES=     -0.2039
                                          TOTAL ENERGY=     -0.4160
                                        KINETIC ENERGY=      0.4160
                             NUCLEAR ATTRACTION ENERGY=     -0.9108
                             ELECTRON REPULSION ENERGY=      0.2787
                                       EXCHANGE ENERGY=     -0.2000

 *******************************************************************************

                             D I R A C   E X I T
 NORMAL TERMINATION



 =================
 Timing Statistics
 =================
  
 Total Used :                     CPU=        0.06      System=        0.00     Elapsed=        0.07

 Calls  Section                     ( Mean, Percentage )
 ---------------------------------------------------------------------------------------------------
     2  ><      ................      0.00    0.00             0.00    0.00             0.00    0.01
     1  EXIT PROCEDURE .........      0.06  100.00             0.00    0.00             0.07   99.99


 Currently Open Files (EXIT00)
 ====================

 Unit    Access Format  Status   Type       Ident (file)
 -------------------------------------------------------
   3      SEQ    FORM   TRANSP  NORMAL      LOGFILE
                                          ( logfile )
 
Create H   file=TZP-H
XC
  GGA PBE
End
relativistic ZORA
Corepotentials t12.rel
End

 *******************************************************************************
 *                                                                             *
 *  -------------------------------------                                      *
 *   Amsterdam Density Functional  (ADF)         2019                          *
 *  -------------------------------------                                      *
 *                                               r79301 2019-11-09             *
 *                                                                             *
 *                                                                             *
 *                              =================                              *
 *                              |               |                              *
 *                              |     A D F     |                              *
 *                              |               |                              *
 *                              =================                              *
 *                                                                             *
 *                                                                             *
 *   Online information and documentation:  https://www.scm.com/support/       *
 *   E-mail:  support@scm.com   info@scm.com                                   *
 *                                                                             *
 *   Scientific publications using ADF results must be properly referenced     *
 *   See the User Manuals (or the web site) for recommended citations          *
 *   The terms and conditions of the End User License Agreement apply to       *
 *   the use of ADF, https://www.scm.com/license-terms/                        *
 *                                                                             *
 **********************  x86_64_linux_intel / intelmpi  ************************
 
 
 
  
 ADF 2019  RunTime: Sep08-2020 10:25:31  Nodes: 1  Procs: 1

 Temporary files are created in /scratch/kid_0.1310844887 (0x58465342)

 Hydrogen (TZP)



 ===========================
 A T T A C H E D   F I L E S
 ===========================
  
 CREATE - Data File:    TZP-H
                        Hydrogen (TZP)
 Core Potentials:
         file : t12.rel



 ===============================
 M O D E L   P A R A M E T E R S
 ===============================
  
 DENSITY FUNCTIONAL POTENTIAL (scf)
    LDA:                               PW92                                    == Not Default ==
    Gradient Corrections:              PBEc PBEx                               == Not Default ==

 SPIN  (restricted / unrestr.)
    Molecule:                          Restricted                               

 OTHER ASPECTS
    Relativistic Corrections:          scalar (ZORA,MAPA)                      == Not Default ==

    Nuclear Charge Density Model:      Point Charge Nuclei                      
    Core Treatment:                    Frozen Orbital(s)                        

    Hyperfine or Zeeman Interaction:   ---                                      



 =====================================
 S Y M M E T R Y ,   E L E C T R O N S
 =====================================
  
 Symmetry: ATOM

 Irreducible Representations, including subspecies
 -------------------------------------------------
 S
 P:x  P:y  P:z
 D:z2  D:x2-y2  D:xy  D:xz  D:yz
 F:z3  F:z  F:xyz  F:z2x  F:z2y  F:x  F:y


 Configuration of Valence Electrons
 ==================================

          Occupation Numbers
          -------------------------------------------------
 S        1
 P        0
 D        0
 F        0
          -------------------------------------------------

 Total:   1

 Net Charge: 0 (Nuclei minus Electrons)

 Preset values for MO occupations will be applied through SCF cycle no. 1000000
 Thereafter, the program will assign electrons to MOs that are spatially
 similar to the occupied MOs in a "reference" cycle ("KeepOrbitals").
 The reference cycle is always the PREVIOUS cycle: it will evolve with
 the SCF procedure.



 ================================
 (Slater-type)  F U N C T I O N S  ***  (Basis and Fit)  ***
 ================================
  

 Atom Type    1  (H)
 ==============

 Valence Basis Sets:   4
 -----------------------
   1 S    0.690000
   1 S    0.920000
   1 S    1.580000
   2 P    1.250000


 BAS: List of all Elementary Cartesian Basis Functions
 =====================================================

 The numbering in the list below (to the right of the function characteristics) is referred
 to in print-outs of MO eigenvectors and Mulliken populations in the BAS representation
 (as contrasted to the SFO representation).

 Notes:
 1. The functions are characterized by a polynomial prefactor (powers of x,y,z and r) and
    an exponential decay factor alpha.
 2. Since the basis sets are specific for an atom TYPE, the individual functions occur on
    all atoms of that type.
 3. The word 'Core' in the left margin signals that it is a Core Function (CF) : not a
    degree of freedom in the valence set, but only used to ensure orthogonalization of
    the other valence basis functions on the frozen Core Orbitals.


 (power of) X  Y  Z  R     Alpha  on Atom
            ==========     =====     ==========

 H                                    1
                                  ---------------------------------------------------------------------------
            0  0  0  0     0.690      1
            0  0  0  0     0.920      2
            0  0  0  0     1.580      3
            1  0  0  0     1.250      4
            0  1  0  0     1.250      5
            0  0  1  0     1.250      6

 Total number of charge fitting functions (nprimf)        50
 Total number of Cartesian basis functions (naos)          6
 Total number of Cartesian core functions  (ncos)          0



 BAS: List of all Elementary Cartesian Basis Functions
 =====================================================

 The numbering in the list below (to the right of the function characteristics) is referred
 to in print-outs of MO eigenvectors and Mulliken populations in the BAS representation
 (as contrasted to the SFO representation).

 Notes:
 1. The functions are characterized by a polynomial prefactor (powers of x,y,z and r) and
    an exponential decay factor alpha.
 2. Since the basis sets are specific for an atom TYPE, the individual functions occur on
    all atoms of that type.
 3. The word 'Core' in the left margin signals that it is a Core Function (CF) : not a
    degree of freedom in the valence set, but only used to ensure orthogonalization of
    the other valence basis functions on the frozen Core Orbitals.


 (power of) X  Y  Z  R     Alpha  on Atom
            ==========     =====     ==========

 H                                    1
                                  ---------------------------------------------------------------------------
            0  0  0  0     0.690      1
            0  0  0  0     0.920      2
            0  0  0  0     1.580      3
            1  0  0  0     1.250      4
            0  1  0  0     1.250      5
            0  0  1  0     1.250      6
1
 ***************************************************************************************************



                                              ***********************
                                              *  T E C H N I C A L  *
                                              ***********************
  



 =============================================================
 P A R A L L E L I Z A T I O N  and  V E C T O R I Z A T I O N
 =============================================================
  
 Nr of parallel processes:                                1
 Maximum vector length in NumInt loops:                 128



 =====================
 S C F   U P D A T E S
 =====================
  
 Max. nr. of cycles:                               300
 Convergence criterion:                              0.0000000100
   secondary criterion:                              0.0000000100

 Mix parameter (when DIIS does not apply):           0.2000000000
 Special mix parameter for the first cycle:          1.0000000000
 Mixed ADIIS+SDIIS will be used                  
    Max number of expansion vectors:                10
    Pure ADIIS when Max([F,P]) is above              0.1000000000
    Pure SDIIS when Max([F,P]) is below              0.0010000000
 Automatic ElectronSmearing (in case of problematic SCF convergence) disabled



 =================
 P R E C I S I O N  ***  (General: NumInt, NeglectFunctionTails, ...)  ***
 =================
  

 NumInt:           Target precision:                12.0000000000
 -------           Initial precision:               10.0000000000
                   Min. precision (optimization):   10.0000000000

 Neglect Functions:          Basis functions:        0.1000000000E-13
 ------------------          Fit functions:          0.1000000000E-13



 ===========================
 L I N E A R   S C A L I N G
 ===========================
  

 Cut-off radii density fit:                        0.1000000000E-97
 Overlap cut-off criterion AO matrix elements:     0.1000000000E-97
 Cut-offs for Coulomb potential and fitted density:0.1000000000E-97
 Cut-off criterion for Coulomb multipole terms:    0.1000000000E-97
 Progressive Convergence parameter:                 0.000000000    
1
 ***************************************************************************************************



                                            ***************************
                                            *  C O M P U T A T I O N  *
                                            ***************************
  

 Number of elements of the density matrix on this node (used, total):        21        21



 ===========================================
 Numerical Integration : Fuzzy Cells (Becke)
 ===========================================
  
 Becke grid quality: VERYGOOD       
  
 Lebedev angular grid order:             min:  13 max:  41
 Nr. of radial points:                   min:  64 max:  64

 Total nr. of points:         64
 Nr. of blocks:                1
 Block length:                64
 Nr. of dummy points:          0


 Test of Precision of the Numerical Integration Grid
 ===================================================

 Integral of the Total Core Density:                   0.00000000000000



 ========================
 Density Fitting (zlmFit)
 ========================
  
 ZlmFit Fit Quality: VERYGOOD       
  
 Max L-expansion:                        min:   0 max:   0
 Nr. of radial interpolation points:     min: 120 max: 120



 =====
 S C F  ***  ScaSCF  ***
 =====
  

 CYCLE    1
 SCF Error: norm([F,P])=      0.000000000000, max([F,P])=      0.000000000000
 orbitals (Q,E):
 ---------------
 S :1...3            ( 1.00    -0.5000)  ( 0.00    -0.0900)  ( 0.00     1.2936)
 P :1...1            ( 0.00     0.1562)

 CYCLE    2
 SCF Error: norm([F,P])=      0.031537872292, max([F,P])=      0.030110494752
 orbitals (Q,E):
 ---------------
 S :1...2            ( 1.00    -0.2218)  ( 0.00     0.1019)
 P :1...1            ( 0.00     0.4189)

 CYCLE    3
  SDIIS (wt  0.000):  0.1996  0.8004
 A-DIIS (wt  1.000):  0.0000  1.0000
  DIIS coefficients:  0.0000  1.0000
 SCF Error: norm([F,P])=      0.008617989401, max([F,P])=      0.008343029399
 orbitals (Q,E):
 ---------------
 S :1...2            ( 1.00    -0.2422)  ( 0.00     0.0889)
 P :1...1            ( 0.00     0.4024)

 CYCLE    4
  SDIIS (wt  0.993):  0.1666  0.8334
 A-DIIS (wt  0.007):  0.0000  1.0000
  DIIS coefficients:  0.1654  0.8346
 SCF Error: norm([F,P])=      0.001732350026, max([F,P])=      0.001718616814
 orbitals (Q,E):
 ---------------
 S :1...2            ( 1.00    -0.2385)  ( 0.00     0.0908)
 P :1...1            ( 0.00     0.4054)

 CYCLE    5
  SDIIS (wt  1.000):  0.0236  0.9764
  DIIS coefficients:  0.0236  0.9764
 SCF Error: norm([F,P])=      0.000043673449, max([F,P])=      0.000039769875
 orbitals (Q,E):
 ---------------
 S :1...2            ( 1.00    -0.2386)  ( 0.00     0.0908)
 P :1...1            ( 0.00     0.4054)

 CYCLE    6
  SDIIS (wt  1.000): -0.0577  1.0577
  DIIS coefficients: -0.0577  1.0577
 SCF Error: norm([F,P])=      0.000002383805, max([F,P])=      0.000002158128
 orbitals (Q,E):
 ---------------
 S :1...2            ( 1.00    -0.2386)  ( 0.00     0.0908)
 P :1...1            ( 0.00     0.4054)

 CYCLE    7
  SDIIS (wt  1.000): -0.0032  1.0032
  DIIS coefficients: -0.0032  1.0032
 SCF Error: norm([F,P])=      0.000000007721, max([F,P])=      0.000000007228
 orbitals (Q,E):
 ---------------
 S :1...2            ( 1.00    -0.2386)  ( 0.00     0.0908)
 P :1...1            ( 0.00     0.4054)

 SCF CONVERGED

 CYCLE    8
1
 ***************************************************************************************************



                                                *******************
                                                *  R E S U L T S  *
                                                *******************
  
 *** Using FIT density in Focky
  SDIIS (wt  1.000):  0.0192  0.9808
  DIIS coefficients:  0.0192  0.9808
 SCF Error: norm([F,P])=      0.000000000151, max([F,P])=      0.000000000141

 Scaled ZORA Orbital Energies, per Irrep and Spin:
 =================================================
                        Occup              E (au)              E (eV)       Diff (eV) with prev. cycle
                        -----      --------------------        ------       --------------------------
 S
               1        1.000     -0.23861775226993E+00        -6.493               7.43E-09
               2        0.000      0.90791701709251E-01         2.471
               3        0.000      0.15217530108908E+01        41.409
 P
               1        0.000      0.40537978060393E+00        11.031


 Partially Occupied:
               1 S                -0.23861775226993E+00
  
 LUMO :        2 S                 0.90791701709251E-01
  


 Orbital Energies, all Irreps
 ========================================

 Irrep        no.  (spin)   Occup              E (au)                E (eV)
 ---------------------------------------------------------------------------
 S             1             1.00       -0.23861775226993E+00        -6.4931
 S             2             0.00        0.90791701709251E-01         2.4706
 P             1             0.00        0.40537978060393E+00        11.0309
 S             3             0.00        0.15217530108908E+01        41.4090


 All Electron Calculation, thus no Orbital Energies of the Core Orbitals are calculated



 =======================================
 M U L L I K E N   P O P U L A T I O N S
 =======================================
  
 The survey below gives for each atom:
 a) the total charge (Z minus electrons)
 b) the net spin polarization (nr of electrons spin-A minus spin-B)
 c) for each spin the atomic electron valence density (integrated) per L-value.

 Atom              Charge    Spin density          S         P         D         F
 ----              ------    ------------       ------    ------    ------    ------
 1 H              -0.0000                       1.0000    0.0000    0.0000    0.0000

 Populations of individual BAS functions
 ----------------------------------------
 1 H            0.2104  0.6788  0.1107  0.0000  0.0000  0.0000

 Gross Charges per Atom (Z minus electrons)
 ==========================================
            -0.0000
 Net Total: -0.00000000



 =======================================================================
 Electrostatic potential at the Nuclei due to electrons and other nuclei
 =======================================================================
  
         Atom                  Potential
         ----                  ---------
     1)   H                   0.94468022
 
 
 ========================
 No memory problems found
 ========================
 
 Maximum number of active allocate calls:         306
 
 *******************************************************************************

                             A D F   E X I T
 NORMAL TERMINATION



 =================
 Timing Statistics
 =================
  
 Total Used :                     CPU=        0.34      System=        0.01     Elapsed=        0.38

 Calls  Section                     ( Mean, Percentage )
 ---------------------------------------------------------------------------------------------------
     3  ><      ................      0.00    1.16             0.00    0.00             0.00    1.13
     1  INIT    ................      0.08   22.09             0.00    0.00             0.08   20.65
     1  GEOMET  ................      0.01    3.49             0.01   66.67             0.02    6.07
     1  INPUTA  ................      0.00    0.00             0.00    0.00             0.00    0.87
     1  MAINSY  ................      0.01    2.33             0.00    0.00             0.01    3.40
     1  SYMFIT  ................      0.00    1.16             0.00    0.00             0.00    0.42
     1  CORORT  ................      0.00    0.00             0.00    0.00             0.00    0.33
     1  SYMORB  ................      0.00    0.00             0.00    0.00             0.00    0.19
     1  CLSMAT  ................      0.00    1.16             0.00    0.00             0.01    1.35
     1  ORTHON  ................      0.00    1.16             0.00    0.00             0.00    1.23
     1  GENPT   ................      0.01    3.49             0.00    0.00             0.01    3.24
     1  PTBAS   ................      0.00    1.16             0.00    0.00             0.01    1.35
     8  FOCKY   ................      0.02   52.33             0.00    0.00             0.02   44.31
     8  FOCKTR  ................      0.00    0.00             0.00    0.00             0.00    1.23
     8  SDIIS   ................      0.00    2.33             0.00    0.00             0.00    5.59
     1  COREPS  ................      0.01    2.33             0.00   33.33             0.01    3.62
     1  POPAN   ................      0.00    1.16             0.00    0.00             0.00    1.21
     1  DEBYE   ................      0.00    1.16             0.00    0.00             0.00    0.48
     1  EXIT PROCEDURE .........      0.01    3.49             0.00    0.00             0.01    3.33


 Currently Open Files (EXIT00)
 ====================

 Unit    Access Format  Status   Type       Ident (file)
 -------------------------------------------------------
   3      SEQ    FORM   TRANSP  NORMAL      LOGFILE
                                          ( logfile )

 ***************************************************************************************************
 (LOGFILE)
 <Sep08-2020> <10:25:31>  DIRAC 2019  RunTime: Sep08-2020 10:25:31  Nodes: 1  Procs: 1
 <Sep08-2020> <10:25:31>  NORMAL TERMINATION
 <Sep08-2020> <10:25:31>  END
 <Sep08-2020> <10:25:31>  ADF 2019  RunTime: Sep08-2020 10:25:31  Nodes: 1  Procs: 1
 <Sep08-2020> <10:25:31>  Hydrogen (TZP)
 <Sep08-2020> <10:25:31>  RunType   : CREATE
 <Sep08-2020> <10:25:31>  Net Charge: 0 (Nuclei minus Electrons)
 <Sep08-2020> <10:25:31>  Symmetry  : ATOM
  Coordinates
    Atom         X           Y           Z   (Angstrom)
    1.H         0.000000    0.000000    0.000000
 <Sep08-2020> <10:25:31>  >>>> CORORT
 <Sep08-2020> <10:25:31>  >>>> CLSMAT
 <Sep08-2020> <10:25:31>  >>>> ORTHON
 <Sep08-2020> <10:25:31>  >>>> GENPT
 <Sep08-2020> <10:25:31>  Block Length=  64
 <Sep08-2020> <10:25:31>  >>>> PTBAS
 <Sep08-2020> <10:25:31>  >>>> CYCLE
 <Sep08-2020> <10:25:31>              |Error|         MaxErr       Wt(A-DIIS)
 <Sep08-2020> <10:25:31>      1      0.00000000      0.00000000
 <Sep08-2020> <10:25:31>      2      0.03153787      0.03011049
 <Sep08-2020> <10:25:31>      3      0.00861799      0.00834303    100.0
 <Sep08-2020> <10:25:31>      4      0.00173235      0.00171862      0.7
 <Sep08-2020> <10:25:31>      5      0.00004367      0.00003977      0.0
 <Sep08-2020> <10:25:31>      6      0.00000238      0.00000216      0.0
 <Sep08-2020> <10:25:32>      7      0.00000001      0.00000001      0.0
 <Sep08-2020> <10:25:32>  SCF converged
 <Sep08-2020> <10:25:32>      8      0.00000000      0.00000000      0.0
 <Sep08-2020> <10:25:32>  >>>> POPAN
 <Sep08-2020> <10:25:32>  >>>> DEBYE
 <Sep08-2020> <10:25:32>  NORMAL TERMINATION
 <Sep08-2020> <10:25:32>  END

 *******************************************************************************
 *                                                                             *
 *  -------------------------------------                                      *
 *   Amsterdam Density Functional  (ADF)         2019                          *
 *  -------------------------------------                                      *
 *                                               r79301 2019-11-09             *
 *                                                                             *
 *                                                                             *
 *                            =====================                            *
 *                            |                   |                            *
 *                            |     D I R A C     |                            *
 *                            |                   |                            *
 *                            =====================                            *
 *                                                                             *
 *                                                                             *
 *   Online information and documentation:  https://www.scm.com/support/       *
 *   E-mail:  support@scm.com   info@scm.com                                   *
 *                                                                             *
 *   Scientific publications using ADF results must be properly referenced     *
 *   See the User Manuals (or the web site) for recommended citations          *
 *   The terms and conditions of the End User License Agreement apply to       *
 *   the use of ADF, https://www.scm.com/license-terms/                        *
 *                                                                             *
 **********************  x86_64_linux_intel / intelmpi  ************************
 
 
 
  
 DIRAC 2019  RunTime: Sep08-2020 10:25:32  Nodes: 1  Procs: 1

 Temporary files are created in /scratch/kid_0.1683119285 (0x58465342)

1
 OXYGEN ATOM 1s CORE RELATIVISTIC, Point Nuc, A and c from li
 N J RN H ZN XION ANUC CLIGHT
 5000    4100.00000000197.36710137  8.00000000  0.00000000   15.994914  0.1370360E+03
  PH   PHI     EPS        DEL        DELRVR
  0.30  0.30     2500.00  0.00001000  0.00001000
 IDIRC  NC1  NDEBU NPRIN  IPUN IRCOR IWCOR
   1   300     0     0     0     0     1
   XALPHA      XLATTER      RNUC
  0.70000000  0.00000000  0.00000000 Point Charge
   XN   XL   XJ      XE          XZ      XDELL
  1.0  0.0  0.5      -5.000       2.000     0.00000
  2.0  0.0  0.5      -1.000       2.000     0.00000
  2.0  1.0  0.5      -1.000       2.000     0.00000
  2.0  1.0  1.5      -1.000       2.000     0.00000
 ICORP=  0  NPCL=  0  DEMP=0.00  PEPS=0.000000
 R(1)=  0.1000000E-08 D=  0.1005080E+01 RNUC=  0.0000000E+00
 converged at cycle   28  DENSITY AVERAGING    0.2400
  MAXIMUM ERROR IN R.V(R) IS   0.81125670E-05
 Q,EY,EV,EZ,ESUM,ETOT,RHO  0.800000E+01 -0.101247E+02 -0.114961E+03 -0.177573E+03 -0.405053E+02 -0.743427E+02  0.414766E-14


 DIRAC CALCULATION
1                    OXYGEN ATOM 1s CORE RELATIVISTIC, Point Nuc, A and c from libtc


 EXCHANGE COEFFICIENT=  0.7000000           TAIL CORRECTION=  0.           NUCLEAR RADIUS=  0.000E+00
0                       ORBITAL    N    L    J     ELECTRONS     EIGENVALUE                DELTA OF EIGENV.

                          1S1/2  1.0  0.0  0.5     2.000       -0.1880014E+02                 0.7264358E-06
                          2S1/2  2.0  0.0  0.5     2.000       -0.8412236E+00                 0.5932752E-05
                          2P1/2  2.0  1.0  0.5     2.000       -0.3063203E+00                 0.5998471E-05
                          2P3/2  2.0  1.0  1.5     2.000       -0.3049609E+00                 0.5986971E-05


                                        NUCLEAR CHARGE=    8.000000
                            INTEGRAL OF CHARGE DENSITY=    8.000000
                           SUM OF THE ORBITAL ENERGIES=    -40.5053
                                          TOTAL ENERGY=    -74.3427
                                        KINETIC ENERGY=     74.4552
                             NUCLEAR ATTRACTION ENERGY=   -177.5730
                             ELECTRON REPULSION ENERGY=     36.3686
                                       EXCHANGE ENERGY=     -7.5935

 *******************************************************************************

                             D I R A C   E X I T
 NORMAL TERMINATION



 =================
 Timing Statistics
 =================
  
 Total Used :                     CPU=        0.10      System=        0.00     Elapsed=        0.11

 Calls  Section                     ( Mean, Percentage )
 ---------------------------------------------------------------------------------------------------
     2  ><      ................      0.00    0.00             0.00    0.00             0.00    0.01
     1  EXIT PROCEDURE .........      0.10  100.00             0.00    0.00             0.11   99.99


 Currently Open Files (EXIT00)
 ====================

 Unit    Access Format  Status   Type       Ident (file)
 -------------------------------------------------------
   3      SEQ    FORM   TRANSP  NORMAL      LOGFILE
                                          ( logfile )
 
Create O   file=TZP-O.1s
XC
  GGA PBE
End
relativistic ZORA
Corepotentials t12.rel
End

 *******************************************************************************
 *                                                                             *
 *  -------------------------------------                                      *
 *   Amsterdam Density Functional  (ADF)         2019                          *
 *  -------------------------------------                                      *
 *                                               r79301 2019-11-09             *
 *                                                                             *
 *                                                                             *
 *                              =================                              *
 *                              |               |                              *
 *                              |     A D F     |                              *
 *                              |               |                              *
 *                              =================                              *
 *                                                                             *
 *                                                                             *
 *   Online information and documentation:  https://www.scm.com/support/       *
 *   E-mail:  support@scm.com   info@scm.com                                   *
 *                                                                             *
 *   Scientific publications using ADF results must be properly referenced     *
 *   See the User Manuals (or the web site) for recommended citations          *
 *   The terms and conditions of the End User License Agreement apply to       *
 *   the use of ADF, https://www.scm.com/license-terms/                        *
 *                                                                             *
 **********************  x86_64_linux_intel / intelmpi  ************************
 
 
 
  
 ADF 2019  RunTime: Sep08-2020 10:25:32  Nodes: 1  Procs: 1

 Temporary files are created in /scratch/kid_0.1436471789 (0x58465342)

 Oxygen (TZP, 1s frozen)



 ===========================
 A T T A C H E D   F I L E S
 ===========================
  
 CREATE - Data File:    TZP-O.1s
                        Oxygen (TZP, 1s frozen)
 Core Potentials:
         file : t12.rel



 ===============================
 M O D E L   P A R A M E T E R S
 ===============================
  
 DENSITY FUNCTIONAL POTENTIAL (scf)
    LDA:                               PW92                                    == Not Default ==
    Gradient Corrections:              PBEc PBEx                               == Not Default ==

 SPIN  (restricted / unrestr.)
    Molecule:                          Restricted                               

 OTHER ASPECTS
    Relativistic Corrections:          scalar (ZORA,MAPA)                      == Not Default ==

    Nuclear Charge Density Model:      Point Charge Nuclei                      
    Core Treatment:                    Frozen Orbital(s)                        

    Hyperfine or Zeeman Interaction:   ---                                      



 =====================================
 S Y M M E T R Y ,   E L E C T R O N S
 =====================================
  
 Symmetry: ATOM

 Irreducible Representations, including subspecies
 -------------------------------------------------
 S
 P:x  P:y  P:z
 D:z2  D:x2-y2  D:xy  D:xz  D:yz
 F:z3  F:z  F:xyz  F:z2x  F:z2y  F:x  F:y


 Configuration of Valence Electrons
 ==================================

          Occupation Numbers
          -------------------------------------------------
 S        2
 P        4
 D        0
 F        0
          -------------------------------------------------

 Total:   6

 Net Charge: 0 (Nuclei minus Electrons)

 Preset values for MO occupations will be applied through SCF cycle no. 1000000
 Thereafter, the program will assign electrons to MOs that are spatially
 similar to the occupied MOs in a "reference" cycle ("KeepOrbitals").
 The reference cycle is always the PREVIOUS cycle: it will evolve with
 the SCF procedure.



 ================================
 (Slater-type)  F U N C T I O N S  ***  (Basis and Fit)  ***
 ================================
  

 Atom Type    1  (O)
 ==============

 Valence Basis Sets:   8
 -----------------------
   1 S    7.360000
   2 S    1.720000
   2 S    2.880000
   2 S    7.580000
   2 P    1.120000
   2 P    2.080000
   2 P    4.080000
   3 D    2.000000

 Frozen Core Shells
 ------------------
    S:  1


 BAS: List of all Elementary Cartesian Basis Functions
 =====================================================

 The numbering in the list below (to the right of the function characteristics) is referred
 to in print-outs of MO eigenvectors and Mulliken populations in the BAS representation
 (as contrasted to the SFO representation).

 Notes:
 1. The functions are characterized by a polynomial prefactor (powers of x,y,z and r) and
    an exponential decay factor alpha.
 2. Since the basis sets are specific for an atom TYPE, the individual functions occur on
    all atoms of that type.
 3. The word 'Core' in the left margin signals that it is a Core Function (CF) : not a
    degree of freedom in the valence set, but only used to ensure orthogonalization of
    the other valence basis functions on the frozen Core Orbitals.


 (power of) X  Y  Z  R     Alpha  on Atom
            ==========     =====     ==========

 O                                    1
                                  ---------------------------------------------------------------------------
    Core    0  0  0  0     7.360      1
            0  0  0  1     1.720      2
            0  0  0  1     2.880      3
            0  0  0  1     7.580      4
            1  0  0  0     1.120      5
            0  1  0  0     1.120      6
            0  0  1  0     1.120      7
            1  0  0  0     2.080      8
            0  1  0  0     2.080      9
            0  0  1  0     2.080     10
            1  0  0  0     4.080     11
            0  1  0  0     4.080     12
            0  0  1  0     4.080     13
            2  0  0  0     2.000     14
            1  1  0  0     2.000     15
            1  0  1  0     2.000     16
            0  2  0  0     2.000     17
            0  1  1  0     2.000     18
            0  0  2  0     2.000     19

 Total number of charge fitting functions (nprimf)        82
 Total number of Cartesian basis functions (naos)         19
 Total number of Cartesian core functions  (ncos)          1



 BAS: List of all Elementary Cartesian Basis Functions
 =====================================================

 The numbering in the list below (to the right of the function characteristics) is referred
 to in print-outs of MO eigenvectors and Mulliken populations in the BAS representation
 (as contrasted to the SFO representation).

 Notes:
 1. The functions are characterized by a polynomial prefactor (powers of x,y,z and r) and
    an exponential decay factor alpha.
 2. Since the basis sets are specific for an atom TYPE, the individual functions occur on
    all atoms of that type.
 3. The word 'Core' in the left margin signals that it is a Core Function (CF) : not a
    degree of freedom in the valence set, but only used to ensure orthogonalization of
    the other valence basis functions on the frozen Core Orbitals.


 (power of) X  Y  Z  R     Alpha  on Atom
            ==========     =====     ==========

 O                                    1
                                  ---------------------------------------------------------------------------
    Core    0  0  0  0     7.360      1
            0  0  0  1     1.720      2
            0  0  0  1     2.880      3
            0  0  0  1     7.580      4
            1  0  0  0     1.120      5
            0  1  0  0     1.120      6
            0  0  1  0     1.120      7
            1  0  0  0     2.080      8
            0  1  0  0     2.080      9
            0  0  1  0     2.080     10
            1  0  0  0     4.080     11
            0  1  0  0     4.080     12
            0  0  1  0     4.080     13
            2  0  0  0     2.000     14
            1  1  0  0     2.000     15
            1  0  1  0     2.000     16
            0  2  0  0     2.000     17
            0  1  1  0     2.000     18
            0  0  2  0     2.000     19
1
 ***************************************************************************************************



                                              ***********************
                                              *  T E C H N I C A L  *
                                              ***********************
  



 =============================================================
 P A R A L L E L I Z A T I O N  and  V E C T O R I Z A T I O N
 =============================================================
  
 Nr of parallel processes:                                1
 Maximum vector length in NumInt loops:                 128



 =====================
 S C F   U P D A T E S
 =====================
  
 Max. nr. of cycles:                               300
 Convergence criterion:                              0.0000000100
   secondary criterion:                              0.0000000100

 Mix parameter (when DIIS does not apply):           0.2000000000
 Special mix parameter for the first cycle:          1.0000000000
 Mixed ADIIS+SDIIS will be used                  
    Max number of expansion vectors:                10
    Pure ADIIS when Max([F,P]) is above              0.1000000000
    Pure SDIIS when Max([F,P]) is below              0.0010000000
 Automatic ElectronSmearing (in case of problematic SCF convergence) disabled



 =================
 P R E C I S I O N  ***  (General: NumInt, NeglectFunctionTails, ...)  ***
 =================
  

 NumInt:           Target precision:                12.0000000000
 -------           Initial precision:               10.0000000000
                   Min. precision (optimization):   10.0000000000

 Neglect Functions:          Basis functions:        0.1000000000E-13
 ------------------          Fit functions:          0.1000000000E-13



 ===========================
 L I N E A R   S C A L I N G
 ===========================
  

 Cut-off radii density fit:                        0.1000000000E-97
 Overlap cut-off criterion AO matrix elements:     0.1000000000E-97
 Cut-offs for Coulomb potential and fitted density:0.1000000000E-97
 Cut-off criterion for Coulomb multipole terms:    0.1000000000E-97
 Progressive Convergence parameter:                 0.000000000    
1
 ***************************************************************************************************



                                            ***************************
                                            *  C O M P U T A T I O N  *
                                            ***************************
  

 Number of elements of the density matrix on this node (used, total):       190       190



 ===========================================
 Numerical Integration : Fuzzy Cells (Becke)
 ===========================================
  
 Becke grid quality: VERYGOOD       
  
 Lebedev angular grid order:             min:  13 max:  41
 Nr. of radial points:                   min:  68 max:  68

 Total nr. of points:         68
 Nr. of blocks:                1
 Block length:                68
 Nr. of dummy points:          0


 Test of Precision of the Numerical Integration Grid
 ===================================================

 Integral of the Total Core Density:                   1.99999999865610
 Relative Error:                                      -6.720E-10



 ========================
 Density Fitting (zlmFit)
 ========================
  
 ZlmFit Fit Quality: VERYGOOD       
  
 Max L-expansion:                        min:   0 max:   0
 Nr. of radial interpolation points:     min: 140 max: 140



 =====
 S C F  ***  ScaSCF  ***
 =====
  

 CYCLE    1
 SCF Error: norm([F,P])=      0.000000000000, max([F,P])=      0.000000000000
 orbitals (Q,E):
 ---------------
 S :1...3            ( 2.00    -5.3654)  ( 0.00    -2.2073)  ( 0.00    23.6692)
 P :1...3            ( 4.00    -5.0045)  ( 0.00    -2.0150)  ( 0.00    -0.3846)
 D :1...1            ( 0.00    -2.0410)

 CYCLE    2
 SCF Error: norm([F,P])=      4.562993374873, max([F,P])=      2.528971113813
 orbitals (Q,E):
 ---------------
 S :1...2            ( 2.00    -0.1548)  ( 0.00     1.6948)
 P :1...2            ( 4.00     0.1773)  ( 0.00     0.9552)
 D :1...1            ( 0.00     1.4649)

 CYCLE    3
  SDIIS (wt  0.000):  0.3378  0.6622
 A-DIIS (wt  1.000):  0.4814  0.5186
  DIIS coefficients:  0.4814  0.5186
 SCF Error: norm([F,P])=      2.723155250500, max([F,P])=      1.798667049295
 orbitals (Q,E):
 ---------------
 S :1...2            ( 2.00    -1.1093)  ( 0.00     0.7549)
 P :1...2            ( 4.00    -0.5518)  ( 0.00     0.2590)
 D :1...1            ( 0.00     0.8910)

 CYCLE    4
  SDIIS (wt  0.000):  0.0919  0.9081
 A-DIIS (wt  1.000):  0.0000  1.0000
  DIIS coefficients:  0.0000  1.0000
 SCF Error: norm([F,P])=      0.289027138405, max([F,P])=      0.130648623511
 orbitals (Q,E):
 ---------------
 S :1...2            ( 2.00    -0.7707)  ( 0.00     0.9912)
 P :1...2            ( 4.00    -0.2284)  ( 0.00     0.4046)
 D :1...1            ( 0.00     1.1288)

 CYCLE    5
  SDIIS (wt  0.000):  0.0260  0.6740  0.3001
 A-DIIS (wt  1.000):  0.0000  0.5764  0.4236
  DIIS coefficients:  0.0000  0.5764  0.4236
 SCF Error: norm([F,P])=      0.416615089426, max([F,P])=      0.232643669786
 orbitals (Q,E):
 ---------------
 S :1...2            ( 2.00    -0.8764)  ( 0.00     0.9107)
 P :1...2            ( 4.00    -0.3280)  ( 0.00     0.3557)
 D :1...1            ( 0.00     1.0703)

 CYCLE    6
  SDIIS (wt  0.942):  0.0005  0.0237 -0.0203  0.9960
 A-DIIS (wt  0.058):  0.0000  0.0000  0.0000  1.0000
  DIIS coefficients:  0.0005  0.0224 -0.0191  0.9962
 SCF Error: norm([F,P])=      0.013723272809, max([F,P])=      0.006719036732
 orbitals (Q,E):
 ---------------
 S :1...2            ( 2.00    -0.8830)  ( 0.00     0.9058)
 P :1...2            ( 4.00    -0.3343)  ( 0.00     0.3521)
 D :1...1            ( 0.00     1.0657)

 CYCLE    7
  SDIIS (wt  1.000): -0.0000  0.0016  0.0023  0.0424  0.9537
  DIIS coefficients: -0.0000  0.0016  0.0023  0.0424  0.9537
 SCF Error: norm([F,P])=      0.001103645928, max([F,P])=      0.000634039171
 orbitals (Q,E):
 ---------------
 S :1...2            ( 2.00    -0.8827)  ( 0.00     0.9060)
 P :1...2            ( 4.00    -0.3340)  ( 0.00     0.3523)
 D :1...1            ( 0.00     1.0659)

 CYCLE    8
  SDIIS (wt  1.000): -0.0000 -0.0001  0.0000 -0.0032  0.0268  0.9765
  DIIS coefficients: -0.0000 -0.0001  0.0000 -0.0032  0.0268  0.9765
 SCF Error: norm([F,P])=      0.000035919805, max([F,P])=      0.000020263970
 orbitals (Q,E):
 ---------------
 S :1...2            ( 2.00    -0.8827)  ( 0.00     0.9060)
 P :1...2            ( 4.00    -0.3340)  ( 0.00     0.3522)
 D :1...1            ( 0.00     1.0659)

 CYCLE    9
  SDIIS (wt  1.000): -0.0000  0.0008  0.0188  0.9804
  DIIS coefficients: -0.0000  0.0008  0.0188  0.9804
 SCF Error: norm([F,P])=      0.000000326384, max([F,P])=      0.000000183924
 orbitals (Q,E):
 ---------------
 S :1...2            ( 2.00    -0.8827)  ( 0.00     0.9060)
 P :1...2            ( 4.00    -0.3340)  ( 0.00     0.3522)
 D :1...1            ( 0.00     1.0659)

 CYCLE   10
  SDIIS (wt  1.000):  0.0000  0.0003  0.9996
  DIIS coefficients:  0.0000  0.0003  0.9996
 SCF Error: norm([F,P])=      0.000000000559, max([F,P])=      0.000000000306
 orbitals (Q,E):
 ---------------
 S :1...2            ( 2.00    -0.8827)  ( 0.00     0.9060)
 P :1...2            ( 4.00    -0.3340)  ( 0.00     0.3522)
 D :1...1            ( 0.00     1.0659)

 SCF CONVERGED

 CYCLE   11
1
 ***************************************************************************************************



                                                *******************
                                                *  R E S U L T S  *
                                                *******************
  
 *** Using FIT density in Focky
  SDIIS (wt  1.000): -0.0000  0.0143  0.9857
  DIIS coefficients: -0.0000  0.0143  0.9857
 SCF Error: norm([F,P])=      0.000000000010, max([F,P])=      0.000000000006

 Scaled ZORA Orbital Energies, per Irrep and Spin:
 =================================================
                        Occup              E (au)              E (eV)       Diff (eV) with prev. cycle
                        -----      --------------------        ------       --------------------------
 S
               1        2.000     -0.88272313143209E+00       -24.020              -9.28E-11
               2        0.000      0.90601345014671E+00        24.654
               3        0.000      0.29578810816937E+02       804.880
 P
               1        4.000     -0.33400585272070E+00        -9.089              -8.94E-11
               2        0.000      0.35224911365993E+00         9.585
               3        0.000      0.38342927625315E+01       104.336
 D
               1        0.000      0.10658965783141E+01        29.005


 Partially Occupied:
               1 P                -0.33400585272070E+00
  
 HOMO :        1 S                -0.88272313143209E+00
 LUMO :        2 P                 0.35224911365993E+00
  


 Orbital Energies, all Irreps
 ========================================

 Irrep        no.  (spin)   Occup              E (au)                E (eV)
 ---------------------------------------------------------------------------
 S             1             2.00       -0.88272313143209E+00       -24.0201
 P             1             4.00       -0.33400585272070E+00        -9.0888
 P             2             0.00        0.35224911365993E+00         9.5852
 S             2             0.00        0.90601345014671E+00        24.6539
 D             1             0.00        0.10658965783141E+01        29.0045
 P             3             0.00        0.38342927625315E+01       104.3364
 S             3             0.00        0.29578810816937E+02       804.8804


 Scaled ZORA Orbital Energies of the Core Orbitals:
 ==================================================

 (Note that the atoms are grouped by atomtype, see the labels, and may hence NOT be in input order)

 AtomType  Orbital  Atom                   E (au)                        E (eV)
 --------  -------  ----           --------------------        ----------------
 O           1S        1          -0.18925919758629E+02                -515.000



 =======================================
 M U L L I K E N   P O P U L A T I O N S
 =======================================
  
 The survey below gives for each atom:
 a) the total charge (Z minus electrons)
 b) the net spin polarization (nr of electrons spin-A minus spin-B)
 c) for each spin the atomic electron valence density (integrated) per L-value.

 Atom              Charge    Spin density          S         P         D         F
 ----              ------    ------------       ------    ------    ------    ------
 1 O              -0.0000                       2.0000    4.0000    0.0000    0.0000

 Populations of individual BAS functions
 ----------------------------------------
 1 O            0.0005  0.9226  1.0966 -0.0196  0.3346  0.3346  0.3346  0.7512  0.7512  0.7512
                0.2476  0.2476  0.2476  0.0000  0.0000  0.0000  0.0000  0.0000  0.0000

 Gross Charges per Atom (Z minus electrons)
 ==========================================
            -0.0000
 Net Total: -0.00000000



 =======================================================================
 Electrostatic potential at the Nuclei due to electrons and other nuclei
 =======================================================================
  
         Atom                  Potential
         ----                  ---------
     1)   O                  22.20265662
 
 
 ========================
 No memory problems found
 ========================
 
 Maximum number of active allocate calls:         389
 
 *******************************************************************************

                             A D F   E X I T
 NORMAL TERMINATION



 =================
 Timing Statistics
 =================
  
 Total Used :                     CPU=        0.43      System=        0.02     Elapsed=        0.49

 Calls  Section                     ( Mean, Percentage )
 ---------------------------------------------------------------------------------------------------
     3  ><      ................      0.00    0.93             0.00    0.00             0.00    0.90
     1  INIT    ................      0.07   16.67             0.00   20.00             0.08   16.24
     1  GEOMET  ................      0.02    3.70             0.00    0.00             0.02    4.83
     1  INPUTA  ................      0.00    0.00             0.00   20.00             0.00    0.69
     1  MAINSY  ................      0.01    1.85             0.00   20.00             0.01    2.76
     1  SYMFIT  ................      0.00    0.93             0.00    0.00             0.00    0.33
     1  CORORT  ................      0.00    0.00             0.00    0.00             0.00    0.31
     1  SYMORB  ................      0.00    0.00             0.00    0.00             0.00    0.18
     1  CLSMAT  ................      0.00    0.93             0.00    0.00             0.01    1.19
     1  ORTHON  ................      0.00    0.93             0.00    0.00             0.01    1.06
     1  GENPT   ................      0.02    3.70             0.00    0.00             0.01    3.06
     1  PTBAS   ................      0.00    0.93             0.00    0.00             0.01    1.14
    11  FOCKY   ................      0.02   55.56             0.00   40.00             0.02   50.77
    11  FOCKTR  ................      0.00    0.93             0.00    0.00             0.00    1.56
    11  SDIIS   ................      0.00    4.63             0.00    0.00             0.00    7.13
     1  COREPS  ................      0.02    3.70             0.00    0.00             0.02    3.62
     1  POPAN   ................      0.00    0.93             0.00    0.00             0.01    1.11
     1  DEBYE   ................      0.00    0.93             0.00    0.00             0.00    0.38
     1  EXIT PROCEDURE .........      0.01    2.78             0.00    0.00             0.01    2.73


 Currently Open Files (EXIT00)
 ====================

 Unit    Access Format  Status   Type       Ident (file)
 -------------------------------------------------------
   3      SEQ    FORM   TRANSP  NORMAL      LOGFILE
                                          ( logfile )

 ***************************************************************************************************
 (LOGFILE)
 <Sep08-2020> <10:25:31>  DIRAC 2019  RunTime: Sep08-2020 10:25:31  Nodes: 1  Procs: 1
 <Sep08-2020> <10:25:31>  NORMAL TERMINATION
 <Sep08-2020> <10:25:31>  END
 <Sep08-2020> <10:25:31>  ADF 2019  RunTime: Sep08-2020 10:25:31  Nodes: 1  Procs: 1
 <Sep08-2020> <10:25:31>  Hydrogen (TZP)
 <Sep08-2020> <10:25:31>  RunType   : CREATE
 <Sep08-2020> <10:25:31>  Net Charge: 0 (Nuclei minus Electrons)
 <Sep08-2020> <10:25:31>  Symmetry  : ATOM
  Coordinates
    Atom         X           Y           Z   (Angstrom)
    1.H         0.000000    0.000000    0.000000
 <Sep08-2020> <10:25:31>  >>>> CORORT
 <Sep08-2020> <10:25:31>  >>>> CLSMAT
 <Sep08-2020> <10:25:31>  >>>> ORTHON
 <Sep08-2020> <10:25:31>  >>>> GENPT
 <Sep08-2020> <10:25:31>  Block Length=  64
 <Sep08-2020> <10:25:31>  >>>> PTBAS
 <Sep08-2020> <10:25:31>  >>>> CYCLE
 <Sep08-2020> <10:25:31>              |Error|         MaxErr       Wt(A-DIIS)
 <Sep08-2020> <10:25:31>      1      0.00000000      0.00000000
 <Sep08-2020> <10:25:31>      2      0.03153787      0.03011049
 <Sep08-2020> <10:25:31>      3      0.00861799      0.00834303    100.0
 <Sep08-2020> <10:25:31>      4      0.00173235      0.00171862      0.7
 <Sep08-2020> <10:25:31>      5      0.00004367      0.00003977      0.0
 <Sep08-2020> <10:25:31>      6      0.00000238      0.00000216      0.0
 <Sep08-2020> <10:25:32>      7      0.00000001      0.00000001      0.0
 <Sep08-2020> <10:25:32>  SCF converged
 <Sep08-2020> <10:25:32>      8      0.00000000      0.00000000      0.0
 <Sep08-2020> <10:25:32>  >>>> POPAN
 <Sep08-2020> <10:25:32>  >>>> DEBYE
 <Sep08-2020> <10:25:32>  NORMAL TERMINATION
 <Sep08-2020> <10:25:32>  END
 <Sep08-2020> <10:25:32>  DIRAC 2019  RunTime: Sep08-2020 10:25:32  Nodes: 1  Procs: 1
 <Sep08-2020> <10:25:32>  NORMAL TERMINATION
 <Sep08-2020> <10:25:32>  END
 <Sep08-2020> <10:25:32>  ADF 2019  RunTime: Sep08-2020 10:25:32  Nodes: 1  Procs: 1
 <Sep08-2020> <10:25:32>  Oxygen (TZP, 1s frozen)
 <Sep08-2020> <10:25:32>  RunType   : CREATE
 <Sep08-2020> <10:25:32>  Net Charge: 0 (Nuclei minus Electrons)
 <Sep08-2020> <10:25:32>  Symmetry  : ATOM
  Coordinates
    Atom         X           Y           Z   (Angstrom)
    1.O         0.000000    0.000000    0.000000
 <Sep08-2020> <10:25:32>  >>>> CORORT
 <Sep08-2020> <10:25:32>  >>>> CLSMAT
 <Sep08-2020> <10:25:32>  >>>> ORTHON
 <Sep08-2020> <10:25:32>  >>>> GENPT
 <Sep08-2020> <10:25:32>  Block Length=  68
 <Sep08-2020> <10:25:32>  >>>> PTBAS
 <Sep08-2020> <10:25:32>  >>>> CYCLE
 <Sep08-2020> <10:25:32>              |Error|         MaxErr       Wt(A-DIIS)
 <Sep08-2020> <10:25:32>      1      0.00000000      0.00000000
 <Sep08-2020> <10:25:32>      2      4.56299337      2.52897111
 <Sep08-2020> <10:25:32>      3      2.72315525      1.79866705    100.0
 <Sep08-2020> <10:25:32>      4      0.28902714      0.13064862    100.0
 <Sep08-2020> <10:25:32>      5      0.41661509      0.23264367    100.0
 <Sep08-2020> <10:25:32>      6      0.01372327      0.00671904      5.8
 <Sep08-2020> <10:25:32>      7      0.00110365      0.00063404      0.0
 <Sep08-2020> <10:25:32>      8      0.00003592      0.00002026      0.0
 <Sep08-2020> <10:25:32>      9      0.00000033      0.00000018      0.0
 <Sep08-2020> <10:25:32>     10      0.00000000      0.00000000      0.0
 <Sep08-2020> <10:25:32>  SCF converged
 <Sep08-2020> <10:25:32>     11      0.00000000      0.00000000      0.0
 <Sep08-2020> <10:25:32>  >>>> POPAN
 <Sep08-2020> <10:25:32>  >>>> DEBYE
 <Sep08-2020> <10:25:32>  NORMAL TERMINATION
 <Sep08-2020> <10:25:32>  END

 *******************************************************************************
 *                                                                             *
 *  -------------------------------------                                      *
 *   Amsterdam Density Functional  (ADF)         2019                          *
 *  -------------------------------------                                      *
 *                                               r79301 2019-11-09             *
 *                                                                             *
 *                                                                             *
 *                            =====================                            *
 *                            |                   |                            *
 *                            |     D I R A C     |                            *
 *                            |                   |                            *
 *                            =====================                            *
 *                                                                             *
 *                                                                             *
 *   Online information and documentation:  https://www.scm.com/support/       *
 *   E-mail:  support@scm.com   info@scm.com                                   *
 *                                                                             *
 *   Scientific publications using ADF results must be properly referenced     *
 *   See the User Manuals (or the web site) for recommended citations          *
 *   The terms and conditions of the End User License Agreement apply to       *
 *   the use of ADF, https://www.scm.com/license-terms/                        *
 *                                                                             *
 **********************  x86_64_linux_intel / intelmpi  ************************
 
 
 
  
 DIRAC 2019  RunTime: Sep08-2020 10:25:32  Nodes: 1  Procs: 1

 Temporary files are created in /scratch/kid_0.1416100520 (0x58465342)

1
 TUNGSTEN ATOM 4d CORE RELATIVISTIC, Point Nuc, A and c from 
 N J RN H ZN XION ANUC CLIGHT
 5000   22100.00000000197.36710137 74.00000000  0.00000000  183.950932  0.1370360E+03
  PH   PHI     EPS        DEL        DELRVR
  0.30  0.30     2500.00  0.00001000  0.00001000
 IDIRC  NC1  NDEBU NPRIN  IPUN IRCOR IWCOR
   1   300     0     0     0     0    14
   XALPHA      XLATTER      RNUC
  0.70000000  0.00000000  0.00000000 Point Charge
   XN   XL   XJ      XE          XZ      XDELL
  1.0  0.0  0.5   -2600.000       2.000     0.00000
  2.0  0.0  0.5    -425.000       2.000     0.00000
  2.0  1.0  0.5    -425.000       2.000     0.00000
  2.0  1.0  1.5    -425.000       4.000     0.00000
  3.0  0.0  0.5    -100.000       2.000     0.00000
  3.0  1.0  0.5    -100.000       2.000     0.00000
  3.0  1.0  1.5    -100.000       4.000     0.00000
  3.0  2.0  1.5     -80.000       4.000     0.00000
  3.0  2.0  2.5     -80.000       6.000     0.00000
  4.0  0.0  0.5     -22.000       2.000     0.00000
  4.0  1.0  0.5     -20.000       2.000     0.00000
  4.0  1.0  1.5     -20.000       4.000     0.00000
  4.0  2.0  1.5     -11.000       4.000     0.00000
  4.0  2.0  2.5     -11.000       6.000     0.00000
  4.0  3.0  2.5      -1.000       6.000     0.00000
  4.0  3.0  3.5      -1.000       8.000     0.00000
  5.0  0.0  0.5      -3.000       2.000     0.00000
  5.0  1.0  0.5      -2.200       2.000     0.00000
  5.0  1.0  1.5      -2.200       4.000     0.00000
  5.0  2.0  1.5      -0.500       4.000     0.00000
  5.0  2.0  2.5      -0.500       0.000     0.00000
  6.0  0.0  0.5      -0.200       2.000     0.00000
 ICORP=  0  NPCL=  0  DEMP=0.00  PEPS=0.000000
 R(1)=  0.1000000E-08 D=  0.1005080E+01 RNUC=  0.0000000E+00
 converged at cycle   63  DENSITY AVERAGING    0.1536
  MAXIMUM ERROR IN R.V(R) IS   0.78838062E-05
 Q,EY,EV,EZ,ESUM,ETOT,RHO  0.740000E+02 -0.431420E+03 -0.281568E+05 -0.403919E+05 -0.993885E+04 -0.161643E+05  0.726391E-09


 DIRAC CALCULATION
1                    TUNGSTEN ATOM 4d CORE RELATIVISTIC, Point Nuc, A and c from libtc


 EXCHANGE COEFFICIENT=  0.7000000           TAIL CORRECTION=  0.           NUCLEAR RADIUS=  0.000E+00
0                       ORBITAL    N    L    J     ELECTRONS     EIGENVALUE                DELTA OF EIGENV.

                          1S1/2  1.0  0.0  0.5     2.000       -0.2549514E+04                 0.5980248E-04
                          2S1/2  2.0  0.0  0.5     2.000       -0.4399118E+03                 0.5052420E-04
                          2P1/2  2.0  1.0  0.5     2.000       -0.4208427E+03                 0.5265062E-04
                          2P3/2  2.0  1.0  1.5     4.000       -0.3711192E+03                 0.5139441E-04
                          3S1/2  3.0  0.0  0.5     2.000       -0.1012881E+03                 0.3437035E-04
                          3P1/2  3.0  1.0  0.5     2.000       -0.9277148E+02                 0.3553128E-04
                          3P3/2  3.0  1.0  1.5     4.000       -0.8201733E+02                 0.3404634E-04
                          3D3/2  3.0  2.0  1.5     4.000       -0.6762803E+02                 0.3680712E-04
                          3D5/2  3.0  2.0  2.5     6.000       -0.6528623E+02                 0.3629511E-04
                          4S1/2  4.0  0.0  0.5     2.000       -0.2084139E+02                 0.1939427E-04
                          4P1/2  4.0  1.0  0.5     2.000       -0.1730737E+02                 0.1933978E-04
                          4P3/2  4.0  1.0  1.5     4.000       -0.1480597E+02                 0.1810922E-04
                          4D3/2  4.0  2.0  1.5     4.000       -0.8989319E+01                 0.1779394E-04
                          4D5/2  4.0  2.0  2.5     6.000       -0.8528007E+01                 0.1741170E-04
                          4F5/2  4.0  3.0  2.5     6.000       -0.1237480E+01                 0.1544089E-04
                          4F7/2  4.0  3.0  3.5     8.000       -0.1154634E+01                 0.1522033E-04
                          5S1/2  5.0  0.0  0.5     2.000       -0.2863514E+01                 0.7979521E-05
                          5P1/2  5.0  1.0  0.5     2.000       -0.1813289E+01                 0.7246225E-05
                          5P3/2  5.0  1.0  1.5     4.000       -0.1448762E+01                 0.6602120E-05
                          5D3/2  5.0  2.0  1.5     4.000       -0.1486933E+00                 0.3973088E-05
                          5D5/2  5.0  2.0  2.5     0.000       -0.1223153E+00                 0.3735081E-05
                          6S1/2  6.0  0.0  0.5     2.000       -0.1847434E+00                 0.1808440E-05


                                        NUCLEAR CHARGE=   74.000000
                            INTEGRAL OF CHARGE DENSITY=   74.000000
                           SUM OF THE ORBITAL ENERGIES=  -9938.8529
                                          TOTAL ENERGY= -16164.2530
                                        KINETIC ENERGY=  18217.9700
                             NUCLEAR ATTRACTION ENERGY= -40391.9132
                             ELECTRON REPULSION ENERGY=   6333.2551
                                       EXCHANGE ENERGY=   -323.5649

 *******************************************************************************

                             D I R A C   E X I T
 NORMAL TERMINATION



 =================
 Timing Statistics
 =================
  
 Total Used :                     CPU=        0.67      System=        0.01     Elapsed=        0.69

 Calls  Section                     ( Mean, Percentage )
 ---------------------------------------------------------------------------------------------------
     2  ><      ................      0.00    0.00             0.00    0.00             0.00    0.00
     1  EXIT PROCEDURE .........      0.67  100.00             0.01  100.00             0.69  100.00


 Currently Open Files (EXIT00)
 ====================

 Unit    Access Format  Status   Type       Ident (file)
 -------------------------------------------------------
   3      SEQ    FORM   TRANSP  NORMAL      LOGFILE
                                          ( logfile )
 
Create W   file=TZP-W.4d
XC
  GGA PBE
End
relativistic ZORA
Corepotentials t12.rel
End

 *******************************************************************************
 *                                                                             *
 *  -------------------------------------                                      *
 *   Amsterdam Density Functional  (ADF)         2019                          *
 *  -------------------------------------                                      *
 *                                               r79301 2019-11-09             *
 *                                                                             *
 *                                                                             *
 *                              =================                              *
 *                              |               |                              *
 *                              |     A D F     |                              *
 *                              |               |                              *
 *                              =================                              *
 *                                                                             *
 *                                                                             *
 *   Online information and documentation:  https://www.scm.com/support/       *
 *   E-mail:  support@scm.com   info@scm.com                                   *
 *                                                                             *
 *   Scientific publications using ADF results must be properly referenced     *
 *   See the User Manuals (or the web site) for recommended citations          *
 *   The terms and conditions of the End User License Agreement apply to       *
 *   the use of ADF, https://www.scm.com/license-terms/                        *
 *                                                                             *
 **********************  x86_64_linux_intel / intelmpi  ************************
 
 
 
  
 ADF 2019  RunTime: Sep08-2020 10:25:33  Nodes: 1  Procs: 1

 Temporary files are created in /scratch/kid_0.1424292544 (0x58465342)

 Tungsten (TZP, 4d frozen)



 ===========================
 A T T A C H E D   F I L E S
 ===========================
  
 CREATE - Data File:    TZP-W.4d
                        Tungsten (TZP, 4d frozen)
 Core Potentials:
         file : t12.rel



 ===============================
 M O D E L   P A R A M E T E R S
 ===============================
  
 DENSITY FUNCTIONAL POTENTIAL (scf)
    LDA:                               PW92                                    == Not Default ==
    Gradient Corrections:              PBEc PBEx                               == Not Default ==

 SPIN  (restricted / unrestr.)
    Molecule:                          Restricted                               

 OTHER ASPECTS
    Relativistic Corrections:          scalar (ZORA,MAPA)                      == Not Default ==

    Nuclear Charge Density Model:      Point Charge Nuclei                      
    Core Treatment:                    Frozen Orbital(s)                        

    Hyperfine or Zeeman Interaction:   ---                                      



 =====================================
 S Y M M E T R Y ,   E L E C T R O N S
 =====================================
  
 Symmetry: ATOM

 Irreducible Representations, including subspecies
 -------------------------------------------------
 S
 P:x  P:y  P:z
 D:z2  D:x2-y2  D:xy  D:xz  D:yz
 F:z3  F:z  F:xyz  F:z2x  F:z2y  F:x  F:y


 Configuration of Valence Electrons
 ==================================

          Occupation Numbers
          -------------------------------------------------
 S        2*2
 P        6
 D        4
 F        14
          -------------------------------------------------

 Total:   28

 Net Charge: 0 (Nuclei minus Electrons)

 Preset values for MO occupations will be applied through SCF cycle no. 1000000
 Thereafter, the program will assign electrons to MOs that are spatially
 similar to the occupied MOs in a "reference" cycle ("KeepOrbitals").
 The reference cycle is always the PREVIOUS cycle: it will evolve with
 the SCF procedure.



 ================================
 (Slater-type)  F U N C T I O N S  ***  (Basis and Fit)  ***
 ================================
  

 Atom Type    1  (W)
 ==============

 Valence Basis Sets:  25
 -----------------------
   1 S   52.000000
   2 S   33.250000
   3 S   19.100000
   4 S   11.650000
   2 P   36.850000
   3 P   16.500000
   4 P   11.550000
   3 D   20.100000
   4 D   10.300000
   1 S  163.900000
   5 S    6.050000
   5 S    3.950000
   6 S    2.850000
   6 S    1.800000
   6 S    1.140000
   5 P    5.900000
   5 P    4.000000
   5 P    2.700000
   5 D    4.150000
   5 D    2.250000
   5 D    1.200000
   4 F   13.550000
   4 F    7.050000
   4 F    3.550000
   6 P    1.800000

 Frozen Core Shells
 ------------------
    S:  4
    P:  3
    D:  2


 BAS: List of all Elementary Cartesian Basis Functions
 =====================================================

 The numbering in the list below (to the right of the function characteristics) is referred
 to in print-outs of MO eigenvectors and Mulliken populations in the BAS representation
 (as contrasted to the SFO representation).

 Notes:
 1. The functions are characterized by a polynomial prefactor (powers of x,y,z and r) and
    an exponential decay factor alpha.
 2. Since the basis sets are specific for an atom TYPE, the individual functions occur on
    all atoms of that type.
 3. The word 'Core' in the left margin signals that it is a Core Function (CF) : not a
    degree of freedom in the valence set, but only used to ensure orthogonalization of
    the other valence basis functions on the frozen Core Orbitals.


 (power of) X  Y  Z  R     Alpha  on Atom
            ==========     =====     ==========

 W                                    1
                                  ---------------------------------------------------------------------------
    Core    0  0  0  0    52.000      1
    Core    0  0  0  1    33.250      2
    Core    0  0  0  2    19.100      3
    Core    0  0  0  3    11.650      4
    Core    1  0  0  0    36.850      5
    Core    0  1  0  0    36.850      6
    Core    0  0  1  0    36.850      7
    Core    1  0  0  1    16.500      8
    Core    0  1  0  1    16.500      9
    Core    0  0  1  1    16.500     10
    Core    1  0  0  2    11.550     11
    Core    0  1  0  2    11.550     12
    Core    0  0  1  2    11.550     13
    Core    2  0  0  0    20.100     14
    Core    1  1  0  0    20.100     15
    Core    1  0  1  0    20.100     16
    Core    0  2  0  0    20.100     17
    Core    0  1  1  0    20.100     18
    Core    0  0  2  0    20.100     19
    Core    2  0  0  1    10.300     20
    Core    1  1  0  1    10.300     21
    Core    1  0  1  1    10.300     22
    Core    0  2  0  1    10.300     23
    Core    0  1  1  1    10.300     24
    Core    0  0  2  1    10.300     25
            0  0  0  0   163.900     26
            0  0  0  4     6.050     27
            0  0  0  4     3.950     28
            0  0  0  5     2.850     29
            0  0  0  5     1.800     30
            0  0  0  5     1.140     31
            1  0  0  3     5.900     32
            0  1  0  3     5.900     33
            0  0  1  3     5.900     34
            1  0  0  3     4.000     35
            0  1  0  3     4.000     36
            0  0  1  3     4.000     37
            1  0  0  3     2.700     38
            0  1  0  3     2.700     39
            0  0  1  3     2.700     40
            2  0  0  2     4.150     41
            1  1  0  2     4.150     42
            1  0  1  2     4.150     43
            0  2  0  2     4.150     44
            0  1  1  2     4.150     45
            0  0  2  2     4.150     46
            2  0  0  2     2.250     47
            1  1  0  2     2.250     48
            1  0  1  2     2.250     49
            0  2  0  2     2.250     50
            0  1  1  2     2.250     51
            0  0  2  2     2.250     52
            2  0  0  2     1.200     53
            1  1  0  2     1.200     54
            1  0  1  2     1.200     55
            0  2  0  2     1.200     56
            0  1  1  2     1.200     57
            0  0  2  2     1.200     58
            3  0  0  0    13.550     59
            2  1  0  0    13.550     60
            2  0  1  0    13.550     61
            1  2  0  0    13.550     62
            1  1  1  0    13.550     63
            1  0  2  0    13.550     64
            0  3  0  0    13.550     65
            0  2  1  0    13.550     66
            0  1  2  0    13.550     67
            0  0  3  0    13.550     68
            3  0  0  0     7.050     69
            2  1  0  0     7.050     70
            2  0  1  0     7.050     71
            1  2  0  0     7.050     72
            1  1  1  0     7.050     73
            1  0  2  0     7.050     74
            0  3  0  0     7.050     75
            0  2  1  0     7.050     76
            0  1  2  0     7.050     77
            0  0  3  0     7.050     78
            3  0  0  0     3.550     79
            2  1  0  0     3.550     80
            2  0  1  0     3.550     81
            1  2  0  0     3.550     82
            1  1  1  0     3.550     83
            1  0  2  0     3.550     84
            0  3  0  0     3.550     85
            0  2  1  0     3.550     86
            0  1  2  0     3.550     87
            0  0  3  0     3.550     88
            1  0  0  4     1.800     89
            0  1  0  4     1.800     90
            0  0  1  4     1.800     91

 Total number of charge fitting functions (nprimf)       329
 Total number of Cartesian basis functions (naos)         91
 Total number of Cartesian core functions  (ncos)         25



 BAS: List of all Elementary Cartesian Basis Functions
 =====================================================

 The numbering in the list below (to the right of the function characteristics) is referred
 to in print-outs of MO eigenvectors and Mulliken populations in the BAS representation
 (as contrasted to the SFO representation).

 Notes:
 1. The functions are characterized by a polynomial prefactor (powers of x,y,z and r) and
    an exponential decay factor alpha.
 2. Since the basis sets are specific for an atom TYPE, the individual functions occur on
    all atoms of that type.
 3. The word 'Core' in the left margin signals that it is a Core Function (CF) : not a
    degree of freedom in the valence set, but only used to ensure orthogonalization of
    the other valence basis functions on the frozen Core Orbitals.


 (power of) X  Y  Z  R     Alpha  on Atom
            ==========     =====     ==========

 W                                    1
                                  ---------------------------------------------------------------------------
    Core    0  0  0  0    52.000      1
    Core    0  0  0  1    33.250      2
    Core    0  0  0  2    19.100      3
    Core    0  0  0  3    11.650      4
    Core    1  0  0  0    36.850      5
    Core    0  1  0  0    36.850      6
    Core    0  0  1  0    36.850      7
    Core    1  0  0  1    16.500      8
    Core    0  1  0  1    16.500      9
    Core    0  0  1  1    16.500     10
    Core    1  0  0  2    11.550     11
    Core    0  1  0  2    11.550     12
    Core    0  0  1  2    11.550     13
    Core    2  0  0  0    20.100     14
    Core    1  1  0  0    20.100     15
    Core    1  0  1  0    20.100     16
    Core    0  2  0  0    20.100     17
    Core    0  1  1  0    20.100     18
    Core    0  0  2  0    20.100     19
    Core    2  0  0  1    10.300     20
    Core    1  1  0  1    10.300     21
    Core    1  0  1  1    10.300     22
    Core    0  2  0  1    10.300     23
    Core    0  1  1  1    10.300     24
    Core    0  0  2  1    10.300     25
            0  0  0  0   163.900     26
            0  0  0  4     6.050     27
            0  0  0  4     3.950     28
            0  0  0  5     2.850     29
            0  0  0  5     1.800     30
            0  0  0  5     1.140     31
            1  0  0  3     5.900     32
            0  1  0  3     5.900     33
            0  0  1  3     5.900     34
            1  0  0  3     4.000     35
            0  1  0  3     4.000     36
            0  0  1  3     4.000     37
            1  0  0  3     2.700     38
            0  1  0  3     2.700     39
            0  0  1  3     2.700     40
            2  0  0  2     4.150     41
            1  1  0  2     4.150     42
            1  0  1  2     4.150     43
            0  2  0  2     4.150     44
            0  1  1  2     4.150     45
            0  0  2  2     4.150     46
            2  0  0  2     2.250     47
            1  1  0  2     2.250     48
            1  0  1  2     2.250     49
            0  2  0  2     2.250     50
            0  1  1  2     2.250     51
            0  0  2  2     2.250     52
            2  0  0  2     1.200     53
            1  1  0  2     1.200     54
            1  0  1  2     1.200     55
            0  2  0  2     1.200     56
            0  1  1  2     1.200     57
            0  0  2  2     1.200     58
            3  0  0  0    13.550     59
            2  1  0  0    13.550     60
            2  0  1  0    13.550     61
            1  2  0  0    13.550     62
            1  1  1  0    13.550     63
            1  0  2  0    13.550     64
            0  3  0  0    13.550     65
            0  2  1  0    13.550     66
            0  1  2  0    13.550     67
            0  0  3  0    13.550     68
            3  0  0  0     7.050     69
            2  1  0  0     7.050     70
            2  0  1  0     7.050     71
            1  2  0  0     7.050     72
            1  1  1  0     7.050     73
            1  0  2  0     7.050     74
            0  3  0  0     7.050     75
            0  2  1  0     7.050     76
            0  1  2  0     7.050     77
            0  0  3  0     7.050     78
            3  0  0  0     3.550     79
            2  1  0  0     3.550     80
            2  0  1  0     3.550     81
            1  2  0  0     3.550     82
            1  1  1  0     3.550     83
[...]
   23.H         3.044890    2.608007    5.140580
   24.H        -2.451183    4.742444    4.189688
 <Sep08-2020> <10:45:58>  >>>> CORORT
 <Sep08-2020> <10:45:58>  >>>> CLSMAT
 <Sep08-2020> <10:45:58>  >>>> ORTHON
 <Sep08-2020> <10:45:58>  >>>> GENPT
 <Sep08-2020> <10:45:59>  Block Length= 128
 <Sep08-2020> <10:45:59>  >>>> PTBAS
 <Sep08-2020> <10:46:01>  combining surface points...
 <Sep08-2020> <10:46:01>  combining surface points...
 <Sep08-2020> <10:46:01>  combining surface points...
 <Sep08-2020> <10:46:01>  >>>> CYCLE
 <Sep08-2020> <10:46:05>              |Error|         MaxErr       Wt(A-DIIS)
 <Sep08-2020> <10:46:05>      1      0.10551026      0.02836430
 <Sep08-2020> <10:46:08>      2      0.20702853      0.03070052    100.0
 <Sep08-2020> <10:46:10>      3      0.06283888      0.00752908    100.0
 <Sep08-2020> <10:46:12>      4      0.09339208      0.01104516    100.0
 <Sep08-2020> <10:46:15>      5      0.21566044      0.02672973    100.0
 <Sep08-2020> <10:46:17>      6      0.06291744      0.00866936      7.7
 <Sep08-2020> <10:46:20>      7      0.02157821      0.00236845      1.4
 <Sep08-2020> <10:46:22>      8      0.00852264      0.00105072      0.1
 <Sep08-2020> <10:46:24>      9      0.00402928      0.00043700      0.0
 <Sep08-2020> <10:46:27>     10      0.00203140      0.00024959      0.0
 <Sep08-2020> <10:46:29>     11      0.00068873      0.00007758      0.0
 <Sep08-2020> <10:46:31>     12      0.00026286      0.00004702      0.0
 <Sep08-2020> <10:46:34>     13      0.00014985      0.00002268      0.0
 <Sep08-2020> <10:46:36>     14      0.00005810      0.00000850      0.0
 <Sep08-2020> <10:46:38>     15      0.00001901      0.00000214      0.0
 <Sep08-2020> <10:46:40>     16      0.00001074      0.00000177      0.0
 <Sep08-2020> <10:46:43>     17      0.00000958      0.00000102      0.0
 <Sep08-2020> <10:46:45>     18      0.00000155      0.00000016      0.0
 <Sep08-2020> <10:46:46>  SCF converged
 <Sep08-2020> <10:46:47>     19      0.00000075      0.00000012      0.0
 <Sep08-2020> <10:46:48>  >>>> TOTEN
 <Sep08-2020> <10:46:51>  >>>> POPAN
 <Sep08-2020> <10:46:51>  >>>> DEBYE
 <Sep08-2020> <10:46:51>  >>>> ENGRAD
 <Sep08-2020> <10:47:00>  current energy                               -7.42489503 Hartree
 <Sep08-2020> <10:47:00>  energy change                      -0.00000152     0.00100000    T
 <Sep08-2020> <10:47:00>  constrained gradient max            0.00185807     0.00100000    F
 <Sep08-2020> <10:47:00>  constrained gradient rms            0.00029915     0.00066667    T
 <Sep08-2020> <10:47:00>  gradient max                        0.00185807
 <Sep08-2020> <10:47:00>  gradient rms                        0.00029915
 <Sep08-2020> <10:47:00>  cart. step max                      0.00535572     0.01000000    T
 <Sep08-2020> <10:47:00>  cart. step rms                      0.00237135     0.00666667    T
  Coordinates in Geometry Cycle 22
    Atom         X           Y           Z   (Angstrom)
    1.W         0.111861    5.400208    3.231436
    2.W        -0.603819    2.420348    6.723370
    3.W        -1.570929    2.507565    3.526642
    4.W         1.538969    4.752984    6.227135
    5.W         1.931437    2.170968    2.948211
    6.O         2.945930    1.825927    4.485911
    7.O         2.718710    1.390802    1.610185
    8.O         1.825013    3.916702    2.631518
    9.O         0.204423    1.554561    3.048794
   10.O        -2.584113    1.547440    2.516521
   11.O         1.809065    6.125935    7.270219
   12.O        -0.815814    3.904718    2.436162
   13.O         0.637555    3.672273    7.542456
   14.O         0.088122    3.618988    5.141155
   15.O         0.507724    6.465091    1.920179
   16.O        -2.031209    2.755485    7.669820
   17.O        -1.345635    6.095301    3.943897
   18.O         0.115593    0.938279    7.301350
   19.O        -1.524458    1.590040    5.158856
   20.O         1.387040    5.804811    4.592768
   21.O        -2.818906    3.805645    4.151772
   22.O         3.092460    3.932133    6.029826
   23.H         3.044716    2.606664    5.143200
   24.H        -2.454282    4.739928    4.190933
 <Sep08-2020> <10:47:00>  >>>> CORORT
 <Sep08-2020> <10:47:00>  >>>> CLSMAT
 <Sep08-2020> <10:47:00>  >>>> ORTHON
 <Sep08-2020> <10:47:00>  >>>> GENPT
 <Sep08-2020> <10:47:00>  Block Length= 128
 <Sep08-2020> <10:47:00>  >>>> PTBAS
 <Sep08-2020> <10:47:02>  combining surface points...
 <Sep08-2020> <10:47:02>  combining surface points...
 <Sep08-2020> <10:47:02>  combining surface points...
 <Sep08-2020> <10:47:02>  >>>> CYCLE
 <Sep08-2020> <10:47:07>              |Error|         MaxErr       Wt(A-DIIS)
 <Sep08-2020> <10:47:07>      1      0.23345776      0.04907304
 <Sep08-2020> <10:47:09>      2      0.20842435      0.03045809    100.0
 <Sep08-2020> <10:47:11>      3      0.06421659      0.00702588    100.0
 <Sep08-2020> <10:47:14>      4      0.11751205      0.01419600    100.0
 <Sep08-2020> <10:47:16>      5      0.15130982      0.01793421    100.0
 <Sep08-2020> <10:47:19>      6      0.07109911      0.00754275      6.6
 <Sep08-2020> <10:47:21>      7      0.02015907      0.00231984      1.3
 <Sep08-2020> <10:47:23>      8      0.00875560      0.00110673      0.1
 <Sep08-2020> <10:47:26>      9      0.00389430      0.00038988      0.0
 <Sep08-2020> <10:47:28>     10      0.00209542      0.00025133      0.0
 <Sep08-2020> <10:47:30>     11      0.00068376      0.00008266      0.0
 <Sep08-2020> <10:47:33>     12      0.00026300      0.00004402      0.0
 <Sep08-2020> <10:47:35>     13      0.00011497      0.00001673      0.0
 <Sep08-2020> <10:47:37>     14      0.00006211      0.00000883      0.0
 <Sep08-2020> <10:47:40>     15      0.00002002      0.00000227      0.0
 <Sep08-2020> <10:47:42>     16      0.00002028      0.00000307      0.0
 <Sep08-2020> <10:47:44>     17      0.00000779      0.00000088      0.0
 <Sep08-2020> <10:47:45>  SCF converged
 <Sep08-2020> <10:47:46>     18      0.00000603      0.00000068      0.0
 <Sep08-2020> <10:47:47>  >>>> TOTEN
 <Sep08-2020> <10:47:50>  >>>> POPAN
 <Sep08-2020> <10:47:50>  >>>> DEBYE
 <Sep08-2020> <10:47:51>  >>>> ENGRAD
 <Sep08-2020> <10:47:59>  current energy                               -7.42489065 Hartree
 <Sep08-2020> <10:47:59>  energy change                       0.00000438     0.00100000    T
 <Sep08-2020> <10:47:59>  constrained gradient max            0.00149555     0.00100000    F
 <Sep08-2020> <10:47:59>  constrained gradient rms            0.00024906     0.00066667    T
 <Sep08-2020> <10:47:59>  gradient max                        0.00149555
 <Sep08-2020> <10:47:59>  gradient rms                        0.00024906
 <Sep08-2020> <10:47:59>  cart. step max                      0.00156607     0.01000000    T
 <Sep08-2020> <10:47:59>  cart. step rms                      0.00070621     0.00666667    T
  Coordinates in Geometry Cycle 23
    Atom         X           Y           Z   (Angstrom)
    1.W         0.111943    5.399442    3.233002
    2.W        -0.603437    2.420699    6.722058
    3.W        -1.571541    2.507473    3.525846
    4.W         1.539653    4.753833    6.227421
    5.W         1.930821    2.170553    2.948133
    6.O         2.945061    1.826345    4.486163
    7.O         2.718827    1.389888    1.610864
    8.O         1.824959    3.916270    2.631092
    9.O         0.204020    1.553729    3.048385
   10.O        -2.585214    1.547526    2.516049
   11.O         1.809739    6.126326    7.271132
   12.O        -0.816488    3.904550    2.436137
   13.O         0.636928    3.673298    7.541718
   14.O         0.088923    3.619312    5.140302
   15.O         0.508871    6.463788    1.921639
   16.O        -2.030977    2.755393    7.668436
   17.O        -1.345602    6.095192    3.944548
   18.O         0.116630    0.939251    7.300796
   19.O        -1.523946    1.589865    5.157837
   20.O         1.387598    5.805558    4.593399
   21.O        -2.819510    3.805056    4.152193
   22.O         3.093134    3.932956    6.030624
   23.H         3.044342    2.607175    5.142899
   24.H        -2.455281    4.739318    4.191642
 <Sep08-2020> <10:47:59>  >>>> CORORT
 <Sep08-2020> <10:47:59>  >>>> CLSMAT
 <Sep08-2020> <10:47:59>  >>>> ORTHON
 <Sep08-2020> <10:47:59>  >>>> GENPT
 <Sep08-2020> <10:48:00>  Block Length= 128
 <Sep08-2020> <10:48:00>  >>>> PTBAS
 <Sep08-2020> <10:48:02>  combining surface points...
 <Sep08-2020> <10:48:02>  combining surface points...
 <Sep08-2020> <10:48:02>  combining surface points...
 <Sep08-2020> <10:48:02>  >>>> CYCLE
 <Sep08-2020> <10:48:06>              |Error|         MaxErr       Wt(A-DIIS)
 <Sep08-2020> <10:48:06>      1      0.09630704      0.01815320
 <Sep08-2020> <10:48:09>      2      0.20666472      0.03062079    100.0
 <Sep08-2020> <10:48:11>      3      0.06273519      0.00736607    100.0
 <Sep08-2020> <10:48:14>      4      0.09766039      0.01157499    100.0
 <Sep08-2020> <10:48:16>      5      0.19955841      0.02438321    100.0
 <Sep08-2020> <10:48:18>      6      0.06309277      0.00818894      7.3
 <Sep08-2020> <10:48:21>      7      0.02163350      0.00238969      1.4
 <Sep08-2020> <10:48:23>      8      0.00864049      0.00108109      0.1
 <Sep08-2020> <10:48:25>      9      0.00404225      0.00042701      0.0
 <Sep08-2020> <10:48:28>     10      0.00205570      0.00025316      0.0
 <Sep08-2020> <10:48:30>     11      0.00069800      0.00008058      0.0
 <Sep08-2020> <10:48:32>     12      0.00026389      0.00004673      0.0
 <Sep08-2020> <10:48:34>     13      0.00014689      0.00002152      0.0
 <Sep08-2020> <10:48:37>     14      0.00005937      0.00000882      0.0
 <Sep08-2020> <10:48:39>     15      0.00001868      0.00000211      0.0
 <Sep08-2020> <10:48:41>     16      0.00001081      0.00000173      0.0
 <Sep08-2020> <10:48:43>     17      0.00000977      0.00000103      0.0
 <Sep08-2020> <10:48:46>     18      0.00000159      0.00000018      0.0
 <Sep08-2020> <10:48:47>  SCF converged
 <Sep08-2020> <10:48:48>     19      0.00000077      0.00000013      0.0
 <Sep08-2020> <10:48:49>  >>>> TOTEN
 <Sep08-2020> <10:48:52>  >>>> POPAN
 <Sep08-2020> <10:48:52>  >>>> DEBYE
 <Sep08-2020> <10:48:52>  >>>> ENGRAD
 <Sep08-2020> <10:49:01>  current energy                               -7.42489362 Hartree
 <Sep08-2020> <10:49:01>  energy change                      -0.00000297     0.00100000    T
 <Sep08-2020> <10:49:01>  constrained gradient max            0.00111397     0.00100000    F
 <Sep08-2020> <10:49:01>  constrained gradient rms            0.00021597     0.00066667    T
 <Sep08-2020> <10:49:01>  gradient max                        0.00111397
 <Sep08-2020> <10:49:01>  gradient rms                        0.00021597
 <Sep08-2020> <10:49:01>  cart. step max                      0.00176794     0.01000000    T
 <Sep08-2020> <10:49:01>  cart. step rms                      0.00073267     0.00666667    T
  Coordinates in Geometry Cycle 24
    Atom         X           Y           Z   (Angstrom)
    1.W         0.111812    5.399275    3.234302
    2.W        -0.603223    2.420158    6.721342
    3.W        -1.571600    2.508203    3.526085
    4.W         1.539363    4.754702    6.227496
    5.W         1.931081    2.169633    2.947455
    6.O         2.944403    1.826098    4.486517
    7.O         2.719251    1.388354    1.610547
    8.O         1.825843    3.915254    2.630446
    9.O         0.204101    1.553714    3.048944
   10.O        -2.584867    1.547854    2.516294
   11.O         1.808188    6.126952    7.271841
   12.O        -0.816578    3.904443    2.436299
   13.O         0.636946    3.673046    7.540876
   14.O         0.087977    3.620297    5.140068
   15.O         0.510585    6.462196    1.922383
   16.O        -2.030223    2.754254    7.668724
   17.O        -1.345628    6.096695    3.944071
   18.O         0.117822    0.938888    7.299362
   19.O        -1.524712    1.589810    5.157821
   20.O         1.387897    5.806177    4.593391
   21.O        -2.820098    3.805345    4.152859
   22.O         3.093159    3.934724    6.030508
   23.H         3.044309    2.607128    5.142368
   24.H        -2.456354    4.739597    4.192318
 <Sep08-2020> <10:49:01>  >>>> CORORT
 <Sep08-2020> <10:49:01>  >>>> CLSMAT
 <Sep08-2020> <10:49:01>  >>>> ORTHON
 <Sep08-2020> <10:49:01>  >>>> GENPT
 <Sep08-2020> <10:49:01>  Block Length= 128
 <Sep08-2020> <10:49:01>  >>>> PTBAS
 <Sep08-2020> <10:49:03>  combining surface points...
 <Sep08-2020> <10:49:03>  combining surface points...
 <Sep08-2020> <10:49:03>  combining surface points...
 <Sep08-2020> <10:49:03>  >>>> CYCLE
 <Sep08-2020> <10:49:08>              |Error|         MaxErr       Wt(A-DIIS)
 <Sep08-2020> <10:49:08>      1      0.11846006      0.02856239
 <Sep08-2020> <10:49:10>      2      0.20712443      0.03100970    100.0
 <Sep08-2020> <10:49:12>      3      0.06326914      0.00722248    100.0
 <Sep08-2020> <10:49:15>      4      0.10591725      0.01261015    100.0
 <Sep08-2020> <10:49:17>      5      0.17567406      0.02105350    100.0
 <Sep08-2020> <10:49:20>      6      0.06526121      0.00747611      6.5
 <Sep08-2020> <10:49:22>      7      0.02195306      0.00248327      1.5
 <Sep08-2020> <10:49:24>      8      0.00882749      0.00112492      0.1
 <Sep08-2020> <10:49:27>      9      0.00398169      0.00040315      0.0
 <Sep08-2020> <10:49:29>     10      0.00209346      0.00025298      0.0
 <Sep08-2020> <10:49:31>     11      0.00070211      0.00008345      0.0
 <Sep08-2020> <10:49:34>     12      0.00026303      0.00004535      0.0
 <Sep08-2020> <10:49:36>     13      0.00013726      0.00002024      0.0
 <Sep08-2020> <10:49:38>     14      0.00006213      0.00000923      0.0
 <Sep08-2020> <10:49:41>     15      0.00001863      0.00000198      0.0
 <Sep08-2020> <10:49:43>     16      0.00001189      0.00000171      0.0
 <Sep08-2020> <10:49:45>     17      0.00000970      0.00000104      0.0
 <Sep08-2020> <10:49:47>     18      0.00000256      0.00000027      0.0
 <Sep08-2020> <10:49:48>  SCF converged
 <Sep08-2020> <10:49:49>     19      0.00000090      0.00000013      0.0
 <Sep08-2020> <10:49:51>  >>>> TOTEN
 <Sep08-2020> <10:49:54>  >>>> POPAN
 <Sep08-2020> <10:49:54>  >>>> DEBYE
 <Sep08-2020> <10:49:54>  >>>> ENGRAD
 <Sep08-2020> <10:50:02>  current energy                               -7.42489847 Hartree
 <Sep08-2020> <10:50:02>  energy change                      -0.00000485     0.00100000    T
 <Sep08-2020> <10:50:02>  constrained gradient max            0.00074763     0.00100000    T
 <Sep08-2020> <10:50:02>  constrained gradient rms            0.00017050     0.00066667    T
 <Sep08-2020> <10:50:02>  gradient max                        0.00074763
 <Sep08-2020> <10:50:02>  gradient rms                        0.00017050
 <Sep08-2020> <10:50:02>  cart. step max                      0.00166115     0.01000000    T
 <Sep08-2020> <10:50:02>  cart. step rms                      0.00057856     0.00666667    T
 <Sep08-2020> <10:50:02>  GEOMETRY CONVERGED
 <Sep08-2020> <10:50:02>  Calculating Energy Terms for Final Geometry
  Coordinates in Geometry Cycle 24
    Atom         X           Y           Z   (Angstrom)
    1.W         0.111812    5.399275    3.234302
    2.W        -0.603223    2.420158    6.721342
    3.W        -1.571600    2.508203    3.526085
    4.W         1.539363    4.754702    6.227496
    5.W         1.931081    2.169633    2.947455
    6.O         2.944403    1.826098    4.486517
    7.O         2.719251    1.388354    1.610547
    8.O         1.825843    3.915254    2.630446
    9.O         0.204101    1.553714    3.048944
   10.O        -2.584867    1.547854    2.516294
   11.O         1.808188    6.126952    7.271841
   12.O        -0.816578    3.904443    2.436299
   13.O         0.636946    3.673046    7.540876
   14.O         0.087977    3.620297    5.140068
   15.O         0.510585    6.462196    1.922383
   16.O        -2.030223    2.754254    7.668724
   17.O        -1.345628    6.096695    3.944071
   18.O         0.117822    0.938888    7.299362
   19.O        -1.524712    1.589810    5.157821
   20.O         1.387897    5.806177    4.593391
   21.O        -2.820098    3.805345    4.152859
   22.O         3.093159    3.934724    6.030508
   23.H         3.044309    2.607128    5.142368
   24.H        -2.456354    4.739597    4.192318
 <Sep08-2020> <10:50:02>  >>>> CORORT
 <Sep08-2020> <10:50:02>  >>>> CLSMAT
 <Sep08-2020> <10:50:02>  >>>> ORTHON
 <Sep08-2020> <10:50:03>  >>>> GENPT
 <Sep08-2020> <10:50:03>  Block Length= 128
 <Sep08-2020> <10:50:03>  >>>> PTBAS
 <Sep08-2020> <10:50:05>  combining surface points...
 <Sep08-2020> <10:50:05>  combining surface points...
 <Sep08-2020> <10:50:05>  combining surface points...
 <Sep08-2020> <10:50:05>  >>>> CYCLE
 <Sep08-2020> <10:50:09>              |Error|         MaxErr       Wt(A-DIIS)
 <Sep08-2020> <10:50:09>      1      0.05992610      0.00882561
 <Sep08-2020> <10:50:12>      2      0.20600971      0.03952066    100.0
 <Sep08-2020> <10:50:14>      3      0.06271567      0.00659888    100.0
 <Sep08-2020> <10:50:17>      4      0.09859229      0.01442618    100.0
 <Sep08-2020> <10:50:19>      5      0.19597036      0.02596046    100.0
 <Sep08-2020> <10:50:21>      6      0.06268725      0.00815109      7.2
 <Sep08-2020> <10:50:24>      7      0.02151185      0.00274550      1.8
 <Sep08-2020> <10:50:26>      8      0.00876138      0.00142742      0.4
 <Sep08-2020> <10:50:28>      9      0.00398697      0.00053833      0.0
 <Sep08-2020> <10:50:31>     10      0.00204080      0.00025347      0.0
 <Sep08-2020> <10:50:33>     11      0.00068779      0.00007943      0.0
 <Sep08-2020> <10:50:35>     12      0.00026053      0.00004432      0.0
 <Sep08-2020> <10:50:38>     13      0.00013763      0.00002274      0.0
 <Sep08-2020> <10:50:40>     14      0.00006002      0.00001001      0.0
 <Sep08-2020> <10:50:42>     15      0.00001840      0.00000201      0.0
 <Sep08-2020> <10:50:44>     16      0.00001116      0.00000199      0.0
 <Sep08-2020> <10:50:47>     17      0.00000920      0.00000107      0.0
 <Sep08-2020> <10:50:49>     18      0.00000163      0.00000018      0.0
 <Sep08-2020> <10:50:50>  SCF converged
 <Sep08-2020> <10:50:51>     19      0.00000080      0.00000012      0.0
 <Sep08-2020> <10:50:53>  >>>> TOTEN
 <Sep08-2020> <10:50:59>  QTAIM: determining topology...
 <Sep08-2020> <10:51:05>  >>>> POPAN
 <Sep08-2020> <10:51:05>  >>>> DEBYE
 <Sep08-2020> <10:51:05>  >>>> AMETS
 <Sep08-2020> <10:51:05>  >>>> POPUL
 <Sep08-2020> <10:51:05>   Bond Energy          -7.42489847 a.u.
 <Sep08-2020> <10:51:05>   Bond Energy        -202.04176723 eV
 <Sep08-2020> <10:51:05>   Bond Energy       -4659.19       kcal/mol
 <Sep08-2020> <10:51:05>  >>>> ENHESS
 <Sep08-2020> <10:51:17>  === NUCLEUS:     1
 <Sep08-2020> <10:54:11>  === NUCLEUS:     2
 <Sep08-2020> <10:57:01>  === NUCLEUS:     3
 <Sep08-2020> <10:59:47>  === NUCLEUS:     4
 <Sep08-2020> <11:02:34>  === NUCLEUS:     5
 <Sep08-2020> <11:05:21>  === NUCLEUS:     6
 <Sep08-2020> <11:07:57>  === NUCLEUS:     7
 <Sep08-2020> <11:10:32>  === NUCLEUS:     8
 <Sep08-2020> <11:13:11>  === NUCLEUS:     9
 <Sep08-2020> <11:15:50>  === NUCLEUS:    10
 <Sep08-2020> <11:18:29>  === NUCLEUS:    11
 <Sep08-2020> <11:21:05>  === NUCLEUS:    12
 <Sep08-2020> <11:23:41>  === NUCLEUS:    13
 <Sep08-2020> <11:26:16>  === NUCLEUS:    14
 <Sep08-2020> <11:28:52>  === NUCLEUS:    15
 <Sep08-2020> <11:31:28>  === NUCLEUS:    16
 <Sep08-2020> <11:34:03>  === NUCLEUS:    17
 <Sep08-2020> <11:36:39>  === NUCLEUS:    18
 <Sep08-2020> <11:39:14>  === NUCLEUS:    19
 <Sep08-2020> <11:41:50>  === NUCLEUS:    20
 <Sep08-2020> <11:44:29>  === NUCLEUS:    21
 <Sep08-2020> <11:47:08>  === NUCLEUS:    22
 <Sep08-2020> <11:49:45>  === NUCLEUS:    23
 <Sep08-2020> <11:52:17>  === NUCLEUS:    24
 <Sep08-2020> <11:54:52>  >>>> CALC_HESS_PMAT
 <Sep08-2020> <11:55:21>  >>>> CALC_HESS_WMAT
 <Sep08-2020> <11:55:27>  NORMAL TERMINATION
 <Sep08-2020> <11:55:27>  END
