
 *******************************************************************************
 *                                                                             *
 *  -------------------------------------                                      *
 *   Amsterdam Density Functional  (ADF)         2019                          *
 *  -------------------------------------                                      *
 *                                               r79301 2019-11-09             *
 *                                                                             *
 *                                                                             *
 *                            =====================                            *
 *                            |                   |                            *
 *                            |     D I R A C     |                            *
 *                            |                   |                            *
 *                            =====================                            *
 *                                                                             *
 *                                                                             *
 *   Online information and documentation:  https://www.scm.com/support/       *
 *   E-mail:  support@scm.com   info@scm.com                                   *
 *                                                                             *
 *   Scientific publications using ADF results must be properly referenced     *
 *   See the User Manuals (or the web site) for recommended citations          *
 *   The terms and conditions of the End User License Agreement apply to       *
 *   the use of ADF, https://www.scm.com/license-terms/                        *
 *                                                                             *
 **********************  x86_64_linux_intel / intelmpi  ************************
 
 
 
  
 DIRAC 2019  RunTime: Sep08-2020 01:39:11  Nodes: 1  Procs: 1

 Temporary files are created in /scratch/kid_0.1755586998 (0x58465342)

1
 HYDROGEN ATOM RELATIVISTIC, Point Nuc, A and c from libtc   
 N J RN H ZN XION ANUC CLIGHT
 5000    1100.00000000197.36710137  1.00000000  0.00000000    1.007825  0.1370360E+03
  PH   PHI     EPS        DEL        DELRVR
  0.30  0.30     2500.00  0.00001000  0.00001000
 IDIRC  NC1  NDEBU NPRIN  IPUN IRCOR IWCOR
   1   300     0     0     0     0     0
   XALPHA      XLATTER      RNUC
  0.70000000  0.00000000  0.00000000 Point Charge
   XN   XL   XJ      XE          XZ      XDELL
  1.0  0.0  0.5      -1.000       1.000     0.00000
 ICORP=  0  NPCL=  0  DEMP=0.00  PEPS=0.000000
 R(1)=  0.1000000E-08 D=  0.1005080E+01 RNUC=  0.0000000E+00
 converged at cycle   32  DENSITY AVERAGING    0.2400
  MAXIMUM ERROR IN R.V(R) IS   0.79874357E-05
 Q,EY,EV,EZ,ESUM,ETOT,RHO  0.100000E+01 -0.266614E+00 -0.619969E+00 -0.910779E+00 -0.203940E+00 -0.415998E+00  0.337036E-17


 DIRAC CALCULATION
1                    HYDROGEN ATOM RELATIVISTIC, Point Nuc, A and c from libtc


 EXCHANGE COEFFICIENT=  0.7000000           TAIL CORRECTION=  0.           NUCLEAR RADIUS=  0.000E+00
0                       ORBITAL    N    L    J     ELECTRONS     EIGENVALUE                DELTA OF EIGENV.

                          1S1/2  1.0  0.0  0.5     1.000       -0.2039397E+00                 0.2720093E-06


                                        NUCLEAR CHARGE=    1.000000
                            INTEGRAL OF CHARGE DENSITY=    1.000000
                           SUM OF THE ORBITAL ENERGIES=     -0.2039
                                          TOTAL ENERGY=     -0.4160
                                        KINETIC ENERGY=      0.4160
                             NUCLEAR ATTRACTION ENERGY=     -0.9108
                             ELECTRON REPULSION ENERGY=      0.2787
                                       EXCHANGE ENERGY=     -0.2000

 *******************************************************************************

                             D I R A C   E X I T
 NORMAL TERMINATION



 =================
 Timing Statistics
 =================
  
 Total Used :                     CPU=        0.06      System=        0.00     Elapsed=        0.07

 Calls  Section                     ( Mean, Percentage )
 ---------------------------------------------------------------------------------------------------
     2  ><      ................      0.00    0.00             0.00    0.00             0.00    0.01
     1  EXIT PROCEDURE .........      0.06  100.00             0.00  100.00             0.07   99.99


 Currently Open Files (EXIT00)
 ====================

 Unit    Access Format  Status   Type       Ident (file)
 -------------------------------------------------------
   3      SEQ    FORM   TRANSP  NORMAL      LOGFILE
                                          ( logfile )
 
Create H   file=TZP-H
XC
  GGA PBE
End
relativistic ZORA
Corepotentials t12.rel
End

 *******************************************************************************
 *                                                                             *
 *  -------------------------------------                                      *
 *   Amsterdam Density Functional  (ADF)         2019                          *
 *  -------------------------------------                                      *
 *                                               r79301 2019-11-09             *
 *                                                                             *
 *                                                                             *
 *                              =================                              *
 *                              |               |                              *
 *                              |     A D F     |                              *
 *                              |               |                              *
 *                              =================                              *
 *                                                                             *
 *                                                                             *
 *   Online information and documentation:  https://www.scm.com/support/       *
 *   E-mail:  support@scm.com   info@scm.com                                   *
 *                                                                             *
 *   Scientific publications using ADF results must be properly referenced     *
 *   See the User Manuals (or the web site) for recommended citations          *
 *   The terms and conditions of the End User License Agreement apply to       *
 *   the use of ADF, https://www.scm.com/license-terms/                        *
 *                                                                             *
 **********************  x86_64_linux_intel / intelmpi  ************************
 
 
 
  
 ADF 2019  RunTime: Sep08-2020 01:39:11  Nodes: 1  Procs: 1

 Temporary files are created in /scratch/kid_0.348667503 (0x58465342)

 Hydrogen (TZP)



 ===========================
 A T T A C H E D   F I L E S
 ===========================
  
 CREATE - Data File:    TZP-H
                        Hydrogen (TZP)
 Core Potentials:
         file : t12.rel



 ===============================
 M O D E L   P A R A M E T E R S
 ===============================
  
 DENSITY FUNCTIONAL POTENTIAL (scf)
    LDA:                               PW92                                    == Not Default ==
    Gradient Corrections:              PBEc PBEx                               == Not Default ==

 SPIN  (restricted / unrestr.)
    Molecule:                          Restricted                               

 OTHER ASPECTS
    Relativistic Corrections:          scalar (ZORA,MAPA)                      == Not Default ==

    Nuclear Charge Density Model:      Point Charge Nuclei                      
    Core Treatment:                    Frozen Orbital(s)                        

    Hyperfine or Zeeman Interaction:   ---                                      



 =====================================
 S Y M M E T R Y ,   E L E C T R O N S
 =====================================
  
 Symmetry: ATOM

 Irreducible Representations, including subspecies
 -------------------------------------------------
 S
 P:x  P:y  P:z
 D:z2  D:x2-y2  D:xy  D:xz  D:yz
 F:z3  F:z  F:xyz  F:z2x  F:z2y  F:x  F:y


 Configuration of Valence Electrons
 ==================================

          Occupation Numbers
          -------------------------------------------------
 S        1
 P        0
 D        0
 F        0
          -------------------------------------------------

 Total:   1

 Net Charge: 0 (Nuclei minus Electrons)

 Preset values for MO occupations will be applied through SCF cycle no. 1000000
 Thereafter, the program will assign electrons to MOs that are spatially
 similar to the occupied MOs in a "reference" cycle ("KeepOrbitals").
 The reference cycle is always the PREVIOUS cycle: it will evolve with
 the SCF procedure.



 ================================
 (Slater-type)  F U N C T I O N S  ***  (Basis and Fit)  ***
 ================================
  

 Atom Type    1  (H)
 ==============

 Valence Basis Sets:   4
 -----------------------
   1 S    0.690000
   1 S    0.920000
   1 S    1.580000
   2 P    1.250000


 BAS: List of all Elementary Cartesian Basis Functions
 =====================================================

 The numbering in the list below (to the right of the function characteristics) is referred
 to in print-outs of MO eigenvectors and Mulliken populations in the BAS representation
 (as contrasted to the SFO representation).

 Notes:
 1. The functions are characterized by a polynomial prefactor (powers of x,y,z and r) and
    an exponential decay factor alpha.
 2. Since the basis sets are specific for an atom TYPE, the individual functions occur on
    all atoms of that type.
 3. The word 'Core' in the left margin signals that it is a Core Function (CF) : not a
    degree of freedom in the valence set, but only used to ensure orthogonalization of
    the other valence basis functions on the frozen Core Orbitals.


 (power of) X  Y  Z  R     Alpha  on Atom
            ==========     =====     ==========

 H                                    1
                                  ---------------------------------------------------------------------------
            0  0  0  0     0.690      1
            0  0  0  0     0.920      2
            0  0  0  0     1.580      3
            1  0  0  0     1.250      4
            0  1  0  0     1.250      5
            0  0  1  0     1.250      6

 Total number of charge fitting functions (nprimf)        50
 Total number of Cartesian basis functions (naos)          6
 Total number of Cartesian core functions  (ncos)          0



 BAS: List of all Elementary Cartesian Basis Functions
 =====================================================

 The numbering in the list below (to the right of the function characteristics) is referred
 to in print-outs of MO eigenvectors and Mulliken populations in the BAS representation
 (as contrasted to the SFO representation).

 Notes:
 1. The functions are characterized by a polynomial prefactor (powers of x,y,z and r) and
    an exponential decay factor alpha.
 2. Since the basis sets are specific for an atom TYPE, the individual functions occur on
    all atoms of that type.
 3. The word 'Core' in the left margin signals that it is a Core Function (CF) : not a
    degree of freedom in the valence set, but only used to ensure orthogonalization of
    the other valence basis functions on the frozen Core Orbitals.


 (power of) X  Y  Z  R     Alpha  on Atom
            ==========     =====     ==========

 H                                    1
                                  ---------------------------------------------------------------------------
            0  0  0  0     0.690      1
            0  0  0  0     0.920      2
            0  0  0  0     1.580      3
            1  0  0  0     1.250      4
            0  1  0  0     1.250      5
            0  0  1  0     1.250      6
1
 ***************************************************************************************************



                                              ***********************
                                              *  T E C H N I C A L  *
                                              ***********************
  



 =============================================================
 P A R A L L E L I Z A T I O N  and  V E C T O R I Z A T I O N
 =============================================================
  
 Nr of parallel processes:                                1
 Maximum vector length in NumInt loops:                 128



 =====================
 S C F   U P D A T E S
 =====================
  
 Max. nr. of cycles:                               300
 Convergence criterion:                              0.0000000100
   secondary criterion:                              0.0000000100

 Mix parameter (when DIIS does not apply):           0.2000000000
 Special mix parameter for the first cycle:          1.0000000000
 Mixed ADIIS+SDIIS will be used                  
    Max number of expansion vectors:                10
    Pure ADIIS when Max([F,P]) is above              0.1000000000
    Pure SDIIS when Max([F,P]) is below              0.0010000000
 Automatic ElectronSmearing (in case of problematic SCF convergence) disabled



 =================
 P R E C I S I O N  ***  (General: NumInt, NeglectFunctionTails, ...)  ***
 =================
  

 NumInt:           Target precision:                12.0000000000
 -------           Initial precision:               10.0000000000
                   Min. precision (optimization):   10.0000000000

 Neglect Functions:          Basis functions:        0.1000000000E-13
 ------------------          Fit functions:          0.1000000000E-13



 ===========================
 L I N E A R   S C A L I N G
 ===========================
  

 Cut-off radii density fit:                        0.1000000000E-97
 Overlap cut-off criterion AO matrix elements:     0.1000000000E-97
 Cut-offs for Coulomb potential and fitted density:0.1000000000E-97
 Cut-off criterion for Coulomb multipole terms:    0.1000000000E-97
 Progressive Convergence parameter:                 0.000000000    
1
 ***************************************************************************************************



                                            ***************************
                                            *  C O M P U T A T I O N  *
                                            ***************************
  

 Number of elements of the density matrix on this node (used, total):        21        21



 ===========================================
 Numerical Integration : Fuzzy Cells (Becke)
 ===========================================
  
 Becke grid quality: VERYGOOD       
  
 Lebedev angular grid order:             min:  13 max:  41
 Nr. of radial points:                   min:  64 max:  64

 Total nr. of points:         64
 Nr. of blocks:                1
 Block length:                64
 Nr. of dummy points:          0


 Test of Precision of the Numerical Integration Grid
 ===================================================

 Integral of the Total Core Density:                   0.00000000000000



 ========================
 Density Fitting (zlmFit)
 ========================
  
 ZlmFit Fit Quality: VERYGOOD       
  
 Max L-expansion:                        min:   0 max:   0
 Nr. of radial interpolation points:     min: 120 max: 120



 =====
 S C F  ***  ScaSCF  ***
 =====
  

 CYCLE    1
 SCF Error: norm([F,P])=      0.000000000000, max([F,P])=      0.000000000000
 orbitals (Q,E):
 ---------------
 S :1...3            ( 1.00    -0.5000)  ( 0.00    -0.0900)  ( 0.00     1.2936)
 P :1...1            ( 0.00     0.1562)

 CYCLE    2
 SCF Error: norm([F,P])=      0.031537872292, max([F,P])=      0.030110494752
 orbitals (Q,E):
 ---------------
 S :1...2            ( 1.00    -0.2218)  ( 0.00     0.1019)
 P :1...1            ( 0.00     0.4189)

 CYCLE    3
  SDIIS (wt  0.000):  0.1996  0.8004
 A-DIIS (wt  1.000):  0.0000  1.0000
  DIIS coefficients:  0.0000  1.0000
 SCF Error: norm([F,P])=      0.008617989401, max([F,P])=      0.008343029399
 orbitals (Q,E):
 ---------------
 S :1...2            ( 1.00    -0.2422)  ( 0.00     0.0889)
 P :1...1            ( 0.00     0.4024)

 CYCLE    4
  SDIIS (wt  0.993):  0.1666  0.8334
 A-DIIS (wt  0.007):  0.0000  1.0000
  DIIS coefficients:  0.1654  0.8346
 SCF Error: norm([F,P])=      0.001732350026, max([F,P])=      0.001718616814
 orbitals (Q,E):
 ---------------
 S :1...2            ( 1.00    -0.2385)  ( 0.00     0.0908)
 P :1...1            ( 0.00     0.4054)

 CYCLE    5
  SDIIS (wt  1.000):  0.0236  0.9764
  DIIS coefficients:  0.0236  0.9764
 SCF Error: norm([F,P])=      0.000043673449, max([F,P])=      0.000039769875
 orbitals (Q,E):
 ---------------
 S :1...2            ( 1.00    -0.2386)  ( 0.00     0.0908)
 P :1...1            ( 0.00     0.4054)

 CYCLE    6
  SDIIS (wt  1.000): -0.0577  1.0577
  DIIS coefficients: -0.0577  1.0577
 SCF Error: norm([F,P])=      0.000002383805, max([F,P])=      0.000002158128
 orbitals (Q,E):
 ---------------
 S :1...2            ( 1.00    -0.2386)  ( 0.00     0.0908)
 P :1...1            ( 0.00     0.4054)

 CYCLE    7
  SDIIS (wt  1.000): -0.0032  1.0032
  DIIS coefficients: -0.0032  1.0032
 SCF Error: norm([F,P])=      0.000000007721, max([F,P])=      0.000000007228
 orbitals (Q,E):
 ---------------
 S :1...2            ( 1.00    -0.2386)  ( 0.00     0.0908)
 P :1...1            ( 0.00     0.4054)

 SCF CONVERGED

 CYCLE    8
1
 ***************************************************************************************************



                                                *******************
                                                *  R E S U L T S  *
                                                *******************
  
 *** Using FIT density in Focky
  SDIIS (wt  1.000):  0.0192  0.9808
  DIIS coefficients:  0.0192  0.9808
 SCF Error: norm([F,P])=      0.000000000151, max([F,P])=      0.000000000141

 Scaled ZORA Orbital Energies, per Irrep and Spin:
 =================================================
                        Occup              E (au)              E (eV)       Diff (eV) with prev. cycle
                        -----      --------------------        ------       --------------------------
 S
               1        1.000     -0.23861775226993E+00        -6.493               7.43E-09
               2        0.000      0.90791701709251E-01         2.471
               3        0.000      0.15217530108908E+01        41.409
 P
               1        0.000      0.40537978060393E+00        11.031


 Partially Occupied:
               1 S                -0.23861775226993E+00
  
 LUMO :        2 S                 0.90791701709251E-01
  


 Orbital Energies, all Irreps
 ========================================

 Irrep        no.  (spin)   Occup              E (au)                E (eV)
 ---------------------------------------------------------------------------
 S             1             1.00       -0.23861775226993E+00        -6.4931
 S             2             0.00        0.90791701709251E-01         2.4706
 P             1             0.00        0.40537978060393E+00        11.0309
 S             3             0.00        0.15217530108908E+01        41.4090


 All Electron Calculation, thus no Orbital Energies of the Core Orbitals are calculated



 =======================================
 M U L L I K E N   P O P U L A T I O N S
 =======================================
  
 The survey below gives for each atom:
 a) the total charge (Z minus electrons)
 b) the net spin polarization (nr of electrons spin-A minus spin-B)
 c) for each spin the atomic electron valence density (integrated) per L-value.

 Atom              Charge    Spin density          S         P         D         F
 ----              ------    ------------       ------    ------    ------    ------
 1 H              -0.0000                       1.0000    0.0000    0.0000    0.0000

 Populations of individual BAS functions
 ----------------------------------------
 1 H            0.2104  0.6788  0.1107  0.0000  0.0000  0.0000

 Gross Charges per Atom (Z minus electrons)
 ==========================================
            -0.0000
 Net Total: -0.00000000



 =======================================================================
 Electrostatic potential at the Nuclei due to electrons and other nuclei
 =======================================================================
  
         Atom                  Potential
         ----                  ---------
     1)   H                   0.94468022
 
 
 ========================
 No memory problems found
 ========================
 
 Maximum number of active allocate calls:         306
 
 *******************************************************************************

                             A D F   E X I T
 NORMAL TERMINATION



 =================
 Timing Statistics
 =================
  
 Total Used :                     CPU=        0.34      System=        0.02     Elapsed=        0.39

 Calls  Section                     ( Mean, Percentage )
 ---------------------------------------------------------------------------------------------------
     3  ><      ................      0.00    0.00             0.00    0.00             0.00    1.17
     1  INIT    ................      0.07   20.93             0.00   20.00             0.08   20.37
     1  GEOMET  ................      0.01    3.49             0.01   40.00             0.02    5.98
     1  INPUTA  ................      0.00    1.16             0.00    0.00             0.00    0.89
     1  MAINSY  ................      0.01    2.33             0.00   20.00             0.01    3.41
     1  SYMFIT  ................      0.00    0.00             0.00    0.00             0.00    0.44
     1  CORORT  ................      0.00    1.16             0.00    0.00             0.00    0.32
     1  SYMORB  ................      0.00    0.00             0.00    0.00             0.00    0.19
     1  CLSMAT  ................      0.00    1.16             0.00    0.00             0.01    1.37
     1  ORTHON  ................      0.00    1.16             0.00    0.00             0.00    1.23
     1  GENPT   ................      0.01    3.49             0.00    0.00             0.01    3.25
     1  PTBAS   ................      0.00    1.16             0.00    0.00             0.01    1.34
     8  FOCKY   ................      0.02   51.16             0.00    0.00             0.02   44.46
     8  FOCKTR  ................      0.00    1.16             0.00    0.00             0.00    1.23
     8  SDIIS   ................      0.00    2.33             0.00   20.00             0.00    5.64
     1  COREPS  ................      0.02    4.65             0.00    0.00             0.01    3.66
     1  POPAN   ................      0.00    1.16             0.00    0.00             0.00    1.21
     1  DEBYE   ................      0.00    0.00             0.00    0.00             0.00    0.48
     1  EXIT PROCEDURE .........      0.01    3.49             0.00    0.00             0.01    3.36


 Currently Open Files (EXIT00)
 ====================

 Unit    Access Format  Status   Type       Ident (file)
 -------------------------------------------------------
   3      SEQ    FORM   TRANSP  NORMAL      LOGFILE
                                          ( logfile )

 ***************************************************************************************************
 (LOGFILE)
 <Sep08-2020> <01:39:11>  DIRAC 2019  RunTime: Sep08-2020 01:39:11  Nodes: 1  Procs: 1
 <Sep08-2020> <01:39:11>  NORMAL TERMINATION
 <Sep08-2020> <01:39:11>  END
 <Sep08-2020> <01:39:11>  ADF 2019  RunTime: Sep08-2020 01:39:11  Nodes: 1  Procs: 1
 <Sep08-2020> <01:39:11>  Hydrogen (TZP)
 <Sep08-2020> <01:39:11>  RunType   : CREATE
 <Sep08-2020> <01:39:11>  Net Charge: 0 (Nuclei minus Electrons)
 <Sep08-2020> <01:39:11>  Symmetry  : ATOM
  Coordinates
    Atom         X           Y           Z   (Angstrom)
    1.H         0.000000    0.000000    0.000000
 <Sep08-2020> <01:39:11>  >>>> CORORT
 <Sep08-2020> <01:39:11>  >>>> CLSMAT
 <Sep08-2020> <01:39:11>  >>>> ORTHON
 <Sep08-2020> <01:39:11>  >>>> GENPT
 <Sep08-2020> <01:39:11>  Block Length=  64
 <Sep08-2020> <01:39:11>  >>>> PTBAS
 <Sep08-2020> <01:39:11>  >>>> CYCLE
 <Sep08-2020> <01:39:11>              |Error|         MaxErr       Wt(A-DIIS)
 <Sep08-2020> <01:39:11>      1      0.00000000      0.00000000
 <Sep08-2020> <01:39:11>      2      0.03153787      0.03011049
 <Sep08-2020> <01:39:11>      3      0.00861799      0.00834303    100.0
 <Sep08-2020> <01:39:11>      4      0.00173235      0.00171862      0.7
 <Sep08-2020> <01:39:11>      5      0.00004367      0.00003977      0.0
 <Sep08-2020> <01:39:11>      6      0.00000238      0.00000216      0.0
 <Sep08-2020> <01:39:11>      7      0.00000001      0.00000001      0.0
 <Sep08-2020> <01:39:11>  SCF converged
 <Sep08-2020> <01:39:11>      8      0.00000000      0.00000000      0.0
 <Sep08-2020> <01:39:11>  >>>> POPAN
 <Sep08-2020> <01:39:11>  >>>> DEBYE
 <Sep08-2020> <01:39:11>  NORMAL TERMINATION
 <Sep08-2020> <01:39:11>  END

 *******************************************************************************
 *                                                                             *
 *  -------------------------------------                                      *
 *   Amsterdam Density Functional  (ADF)         2019                          *
 *  -------------------------------------                                      *
 *                                               r79301 2019-11-09             *
 *                                                                             *
 *                                                                             *
 *                            =====================                            *
 *                            |                   |                            *
 *                            |     D I R A C     |                            *
 *                            |                   |                            *
 *                            =====================                            *
 *                                                                             *
 *                                                                             *
 *   Online information and documentation:  https://www.scm.com/support/       *
 *   E-mail:  support@scm.com   info@scm.com                                   *
 *                                                                             *
 *   Scientific publications using ADF results must be properly referenced     *
 *   See the User Manuals (or the web site) for recommended citations          *
 *   The terms and conditions of the End User License Agreement apply to       *
 *   the use of ADF, https://www.scm.com/license-terms/                        *
 *                                                                             *
 **********************  x86_64_linux_intel / intelmpi  ************************
 
 
 
  
 DIRAC 2019  RunTime: Sep08-2020 01:39:11  Nodes: 1  Procs: 1

 Temporary files are created in /scratch/kid_0.765155150 (0x58465342)

1
 OXYGEN ATOM 1s CORE RELATIVISTIC, Point Nuc, A and c from li
 N J RN H ZN XION ANUC CLIGHT
 5000    4100.00000000197.36710137  8.00000000  0.00000000   15.994914  0.1370360E+03
  PH   PHI     EPS        DEL        DELRVR
  0.30  0.30     2500.00  0.00001000  0.00001000
 IDIRC  NC1  NDEBU NPRIN  IPUN IRCOR IWCOR
   1   300     0     0     0     0     1
   XALPHA      XLATTER      RNUC
  0.70000000  0.00000000  0.00000000 Point Charge
   XN   XL   XJ      XE          XZ      XDELL
  1.0  0.0  0.5      -5.000       2.000     0.00000
  2.0  0.0  0.5      -1.000       2.000     0.00000
  2.0  1.0  0.5      -1.000       2.000     0.00000
  2.0  1.0  1.5      -1.000       2.000     0.00000
 ICORP=  0  NPCL=  0  DEMP=0.00  PEPS=0.000000
 R(1)=  0.1000000E-08 D=  0.1005080E+01 RNUC=  0.0000000E+00
 converged at cycle   28  DENSITY AVERAGING    0.2400
  MAXIMUM ERROR IN R.V(R) IS   0.81125670E-05
 Q,EY,EV,EZ,ESUM,ETOT,RHO  0.800000E+01 -0.101247E+02 -0.114961E+03 -0.177573E+03 -0.405053E+02 -0.743427E+02  0.414766E-14


 DIRAC CALCULATION
1                    OXYGEN ATOM 1s CORE RELATIVISTIC, Point Nuc, A and c from libtc


 EXCHANGE COEFFICIENT=  0.7000000           TAIL CORRECTION=  0.           NUCLEAR RADIUS=  0.000E+00
0                       ORBITAL    N    L    J     ELECTRONS     EIGENVALUE                DELTA OF EIGENV.

                          1S1/2  1.0  0.0  0.5     2.000       -0.1880014E+02                 0.7264358E-06
                          2S1/2  2.0  0.0  0.5     2.000       -0.8412236E+00                 0.5932752E-05
                          2P1/2  2.0  1.0  0.5     2.000       -0.3063203E+00                 0.5998471E-05
                          2P3/2  2.0  1.0  1.5     2.000       -0.3049609E+00                 0.5986971E-05


                                        NUCLEAR CHARGE=    8.000000
                            INTEGRAL OF CHARGE DENSITY=    8.000000
                           SUM OF THE ORBITAL ENERGIES=    -40.5053
                                          TOTAL ENERGY=    -74.3427
                                        KINETIC ENERGY=     74.4552
                             NUCLEAR ATTRACTION ENERGY=   -177.5730
                             ELECTRON REPULSION ENERGY=     36.3686
                                       EXCHANGE ENERGY=     -7.5935

 *******************************************************************************

                             D I R A C   E X I T
 NORMAL TERMINATION



 =================
 Timing Statistics
 =================
  
 Total Used :                     CPU=        0.10      System=        0.00     Elapsed=        0.11

 Calls  Section                     ( Mean, Percentage )
 ---------------------------------------------------------------------------------------------------
     2  ><      ................      0.00    0.00             0.00    0.00             0.00    0.01
     1  EXIT PROCEDURE .........      0.10  100.00             0.00    0.00             0.11   99.99


 Currently Open Files (EXIT00)
 ====================

 Unit    Access Format  Status   Type       Ident (file)
 -------------------------------------------------------
   3      SEQ    FORM   TRANSP  NORMAL      LOGFILE
                                          ( logfile )
 
Create O   file=TZP-O.1s
XC
  GGA PBE
End
relativistic ZORA
Corepotentials t12.rel
End

 *******************************************************************************
 *                                                                             *
 *  -------------------------------------                                      *
 *   Amsterdam Density Functional  (ADF)         2019                          *
 *  -------------------------------------                                      *
 *                                               r79301 2019-11-09             *
 *                                                                             *
 *                                                                             *
 *                              =================                              *
 *                              |               |                              *
 *                              |     A D F     |                              *
 *                              |               |                              *
 *                              =================                              *
 *                                                                             *
 *                                                                             *
 *   Online information and documentation:  https://www.scm.com/support/       *
 *   E-mail:  support@scm.com   info@scm.com                                   *
 *                                                                             *
 *   Scientific publications using ADF results must be properly referenced     *
 *   See the User Manuals (or the web site) for recommended citations          *
 *   The terms and conditions of the End User License Agreement apply to       *
 *   the use of ADF, https://www.scm.com/license-terms/                        *
 *                                                                             *
 **********************  x86_64_linux_intel / intelmpi  ************************
 
 
 
  
 ADF 2019  RunTime: Sep08-2020 01:39:11  Nodes: 1  Procs: 1

 Temporary files are created in /scratch/kid_0.347304867 (0x58465342)

 Oxygen (TZP, 1s frozen)



 ===========================
 A T T A C H E D   F I L E S
 ===========================
  
 CREATE - Data File:    TZP-O.1s
                        Oxygen (TZP, 1s frozen)
 Core Potentials:
         file : t12.rel



 ===============================
 M O D E L   P A R A M E T E R S
 ===============================
  
 DENSITY FUNCTIONAL POTENTIAL (scf)
    LDA:                               PW92                                    == Not Default ==
    Gradient Corrections:              PBEc PBEx                               == Not Default ==

 SPIN  (restricted / unrestr.)
    Molecule:                          Restricted                               

 OTHER ASPECTS
    Relativistic Corrections:          scalar (ZORA,MAPA)                      == Not Default ==

    Nuclear Charge Density Model:      Point Charge Nuclei                      
    Core Treatment:                    Frozen Orbital(s)                        

    Hyperfine or Zeeman Interaction:   ---                                      



 =====================================
 S Y M M E T R Y ,   E L E C T R O N S
 =====================================
  
 Symmetry: ATOM

 Irreducible Representations, including subspecies
 -------------------------------------------------
 S
 P:x  P:y  P:z
 D:z2  D:x2-y2  D:xy  D:xz  D:yz
 F:z3  F:z  F:xyz  F:z2x  F:z2y  F:x  F:y


 Configuration of Valence Electrons
 ==================================

          Occupation Numbers
          -------------------------------------------------
 S        2
 P        4
 D        0
 F        0
          -------------------------------------------------

 Total:   6

 Net Charge: 0 (Nuclei minus Electrons)

 Preset values for MO occupations will be applied through SCF cycle no. 1000000
 Thereafter, the program will assign electrons to MOs that are spatially
 similar to the occupied MOs in a "reference" cycle ("KeepOrbitals").
 The reference cycle is always the PREVIOUS cycle: it will evolve with
 the SCF procedure.



 ================================
 (Slater-type)  F U N C T I O N S  ***  (Basis and Fit)  ***
 ================================
  

 Atom Type    1  (O)
 ==============

 Valence Basis Sets:   8
 -----------------------
   1 S    7.360000
   2 S    1.720000
   2 S    2.880000
   2 S    7.580000
   2 P    1.120000
   2 P    2.080000
   2 P    4.080000
   3 D    2.000000

 Frozen Core Shells
 ------------------
    S:  1


 BAS: List of all Elementary Cartesian Basis Functions
 =====================================================

 The numbering in the list below (to the right of the function characteristics) is referred
 to in print-outs of MO eigenvectors and Mulliken populations in the BAS representation
 (as contrasted to the SFO representation).

 Notes:
 1. The functions are characterized by a polynomial prefactor (powers of x,y,z and r) and
    an exponential decay factor alpha.
 2. Since the basis sets are specific for an atom TYPE, the individual functions occur on
    all atoms of that type.
 3. The word 'Core' in the left margin signals that it is a Core Function (CF) : not a
    degree of freedom in the valence set, but only used to ensure orthogonalization of
    the other valence basis functions on the frozen Core Orbitals.


 (power of) X  Y  Z  R     Alpha  on Atom
            ==========     =====     ==========

 O                                    1
                                  ---------------------------------------------------------------------------
    Core    0  0  0  0     7.360      1
            0  0  0  1     1.720      2
            0  0  0  1     2.880      3
            0  0  0  1     7.580      4
            1  0  0  0     1.120      5
            0  1  0  0     1.120      6
            0  0  1  0     1.120      7
            1  0  0  0     2.080      8
            0  1  0  0     2.080      9
            0  0  1  0     2.080     10
            1  0  0  0     4.080     11
            0  1  0  0     4.080     12
            0  0  1  0     4.080     13
            2  0  0  0     2.000     14
            1  1  0  0     2.000     15
            1  0  1  0     2.000     16
            0  2  0  0     2.000     17
            0  1  1  0     2.000     18
            0  0  2  0     2.000     19

 Total number of charge fitting functions (nprimf)        82
 Total number of Cartesian basis functions (naos)         19
 Total number of Cartesian core functions  (ncos)          1



 BAS: List of all Elementary Cartesian Basis Functions
 =====================================================

 The numbering in the list below (to the right of the function characteristics) is referred
 to in print-outs of MO eigenvectors and Mulliken populations in the BAS representation
 (as contrasted to the SFO representation).

 Notes:
 1. The functions are characterized by a polynomial prefactor (powers of x,y,z and r) and
    an exponential decay factor alpha.
 2. Since the basis sets are specific for an atom TYPE, the individual functions occur on
    all atoms of that type.
 3. The word 'Core' in the left margin signals that it is a Core Function (CF) : not a
    degree of freedom in the valence set, but only used to ensure orthogonalization of
    the other valence basis functions on the frozen Core Orbitals.


 (power of) X  Y  Z  R     Alpha  on Atom
            ==========     =====     ==========

 O                                    1
                                  ---------------------------------------------------------------------------
    Core    0  0  0  0     7.360      1
            0  0  0  1     1.720      2
            0  0  0  1     2.880      3
            0  0  0  1     7.580      4
            1  0  0  0     1.120      5
            0  1  0  0     1.120      6
            0  0  1  0     1.120      7
            1  0  0  0     2.080      8
            0  1  0  0     2.080      9
            0  0  1  0     2.080     10
            1  0  0  0     4.080     11
            0  1  0  0     4.080     12
            0  0  1  0     4.080     13
            2  0  0  0     2.000     14
            1  1  0  0     2.000     15
            1  0  1  0     2.000     16
            0  2  0  0     2.000     17
            0  1  1  0     2.000     18
            0  0  2  0     2.000     19
1
 ***************************************************************************************************



                                              ***********************
                                              *  T E C H N I C A L  *
                                              ***********************
  



 =============================================================
 P A R A L L E L I Z A T I O N  and  V E C T O R I Z A T I O N
 =============================================================
  
 Nr of parallel processes:                                1
 Maximum vector length in NumInt loops:                 128



 =====================
 S C F   U P D A T E S
 =====================
  
 Max. nr. of cycles:                               300
 Convergence criterion:                              0.0000000100
   secondary criterion:                              0.0000000100

 Mix parameter (when DIIS does not apply):           0.2000000000
 Special mix parameter for the first cycle:          1.0000000000
 Mixed ADIIS+SDIIS will be used                  
    Max number of expansion vectors:                10
    Pure ADIIS when Max([F,P]) is above              0.1000000000
    Pure SDIIS when Max([F,P]) is below              0.0010000000
 Automatic ElectronSmearing (in case of problematic SCF convergence) disabled



 =================
 P R E C I S I O N  ***  (General: NumInt, NeglectFunctionTails, ...)  ***
 =================
  

 NumInt:           Target precision:                12.0000000000
 -------           Initial precision:               10.0000000000
                   Min. precision (optimization):   10.0000000000

 Neglect Functions:          Basis functions:        0.1000000000E-13
 ------------------          Fit functions:          0.1000000000E-13



 ===========================
 L I N E A R   S C A L I N G
 ===========================
  

 Cut-off radii density fit:                        0.1000000000E-97
 Overlap cut-off criterion AO matrix elements:     0.1000000000E-97
 Cut-offs for Coulomb potential and fitted density:0.1000000000E-97
 Cut-off criterion for Coulomb multipole terms:    0.1000000000E-97
 Progressive Convergence parameter:                 0.000000000    
1
 ***************************************************************************************************



                                            ***************************
                                            *  C O M P U T A T I O N  *
                                            ***************************
  

 Number of elements of the density matrix on this node (used, total):       190       190



 ===========================================
 Numerical Integration : Fuzzy Cells (Becke)
 ===========================================
  
 Becke grid quality: VERYGOOD       
  
 Lebedev angular grid order:             min:  13 max:  41
 Nr. of radial points:                   min:  68 max:  68

 Total nr. of points:         68
 Nr. of blocks:                1
 Block length:                68
 Nr. of dummy points:          0


 Test of Precision of the Numerical Integration Grid
 ===================================================

 Integral of the Total Core Density:                   1.99999999865610
 Relative Error:                                      -6.720E-10



 ========================
 Density Fitting (zlmFit)
 ========================
  
 ZlmFit Fit Quality: VERYGOOD       
  
 Max L-expansion:                        min:   0 max:   0
 Nr. of radial interpolation points:     min: 140 max: 140



 =====
 S C F  ***  ScaSCF  ***
 =====
  

 CYCLE    1
 SCF Error: norm([F,P])=      0.000000000000, max([F,P])=      0.000000000000
 orbitals (Q,E):
 ---------------
 S :1...3            ( 2.00    -5.3654)  ( 0.00    -2.2073)  ( 0.00    23.6692)
 P :1...3            ( 4.00    -5.0045)  ( 0.00    -2.0150)  ( 0.00    -0.3846)
 D :1...1            ( 0.00    -2.0410)

 CYCLE    2
 SCF Error: norm([F,P])=      4.562993374873, max([F,P])=      2.528971113813
 orbitals (Q,E):
 ---------------
 S :1...2            ( 2.00    -0.1548)  ( 0.00     1.6948)
 P :1...2            ( 4.00     0.1773)  ( 0.00     0.9552)
 D :1...1            ( 0.00     1.4649)

 CYCLE    3
  SDIIS (wt  0.000):  0.3378  0.6622
 A-DIIS (wt  1.000):  0.4814  0.5186
  DIIS coefficients:  0.4814  0.5186
 SCF Error: norm([F,P])=      2.723155250500, max([F,P])=      1.798667049295
 orbitals (Q,E):
 ---------------
 S :1...2            ( 2.00    -1.1093)  ( 0.00     0.7549)
 P :1...2            ( 4.00    -0.5518)  ( 0.00     0.2590)
 D :1...1            ( 0.00     0.8910)

 CYCLE    4
  SDIIS (wt  0.000):  0.0919  0.9081
 A-DIIS (wt  1.000):  0.0000  1.0000
  DIIS coefficients:  0.0000  1.0000
 SCF Error: norm([F,P])=      0.289027138405, max([F,P])=      0.130648623511
 orbitals (Q,E):
 ---------------
 S :1...2            ( 2.00    -0.7707)  ( 0.00     0.9912)
 P :1...2            ( 4.00    -0.2284)  ( 0.00     0.4046)
 D :1...1            ( 0.00     1.1288)

 CYCLE    5
  SDIIS (wt  0.000):  0.0260  0.6740  0.3001
 A-DIIS (wt  1.000):  0.0000  0.5764  0.4236
  DIIS coefficients:  0.0000  0.5764  0.4236
 SCF Error: norm([F,P])=      0.416615089426, max([F,P])=      0.232643669786
 orbitals (Q,E):
 ---------------
 S :1...2            ( 2.00    -0.8764)  ( 0.00     0.9107)
 P :1...2            ( 4.00    -0.3280)  ( 0.00     0.3557)
 D :1...1            ( 0.00     1.0703)

 CYCLE    6
  SDIIS (wt  0.942):  0.0005  0.0237 -0.0203  0.9960
 A-DIIS (wt  0.058):  0.0000  0.0000  0.0000  1.0000
  DIIS coefficients:  0.0005  0.0224 -0.0191  0.9962
 SCF Error: norm([F,P])=      0.013723272809, max([F,P])=      0.006719036732
 orbitals (Q,E):
 ---------------
 S :1...2            ( 2.00    -0.8830)  ( 0.00     0.9058)
 P :1...2            ( 4.00    -0.3343)  ( 0.00     0.3521)
 D :1...1            ( 0.00     1.0657)

 CYCLE    7
  SDIIS (wt  1.000): -0.0000  0.0016  0.0023  0.0424  0.9537
  DIIS coefficients: -0.0000  0.0016  0.0023  0.0424  0.9537
 SCF Error: norm([F,P])=      0.001103645928, max([F,P])=      0.000634039171
 orbitals (Q,E):
 ---------------
 S :1...2            ( 2.00    -0.8827)  ( 0.00     0.9060)
 P :1...2            ( 4.00    -0.3340)  ( 0.00     0.3523)
 D :1...1            ( 0.00     1.0659)

 CYCLE    8
  SDIIS (wt  1.000): -0.0000 -0.0001  0.0000 -0.0032  0.0268  0.9765
  DIIS coefficients: -0.0000 -0.0001  0.0000 -0.0032  0.0268  0.9765
 SCF Error: norm([F,P])=      0.000035919805, max([F,P])=      0.000020263970
 orbitals (Q,E):
 ---------------
 S :1...2            ( 2.00    -0.8827)  ( 0.00     0.9060)
 P :1...2            ( 4.00    -0.3340)  ( 0.00     0.3522)
 D :1...1            ( 0.00     1.0659)

 CYCLE    9
  SDIIS (wt  1.000): -0.0000  0.0008  0.0188  0.9804
  DIIS coefficients: -0.0000  0.0008  0.0188  0.9804
 SCF Error: norm([F,P])=      0.000000326384, max([F,P])=      0.000000183924
 orbitals (Q,E):
 ---------------
 S :1...2            ( 2.00    -0.8827)  ( 0.00     0.9060)
 P :1...2            ( 4.00    -0.3340)  ( 0.00     0.3522)
 D :1...1            ( 0.00     1.0659)

 CYCLE   10
  SDIIS (wt  1.000):  0.0000  0.0003  0.9996
  DIIS coefficients:  0.0000  0.0003  0.9996
 SCF Error: norm([F,P])=      0.000000000559, max([F,P])=      0.000000000306
 orbitals (Q,E):
 ---------------
 S :1...2            ( 2.00    -0.8827)  ( 0.00     0.9060)
 P :1...2            ( 4.00    -0.3340)  ( 0.00     0.3522)
 D :1...1            ( 0.00     1.0659)

 SCF CONVERGED

 CYCLE   11
1
 ***************************************************************************************************



                                                *******************
                                                *  R E S U L T S  *
                                                *******************
  
 *** Using FIT density in Focky
  SDIIS (wt  1.000): -0.0000  0.0143  0.9857
  DIIS coefficients: -0.0000  0.0143  0.9857
 SCF Error: norm([F,P])=      0.000000000010, max([F,P])=      0.000000000006

 Scaled ZORA Orbital Energies, per Irrep and Spin:
 =================================================
                        Occup              E (au)              E (eV)       Diff (eV) with prev. cycle
                        -----      --------------------        ------       --------------------------
 S
               1        2.000     -0.88272313143209E+00       -24.020              -9.28E-11
               2        0.000      0.90601345014671E+00        24.654
               3        0.000      0.29578810816937E+02       804.880
 P
               1        4.000     -0.33400585272070E+00        -9.089              -8.94E-11
               2        0.000      0.35224911365993E+00         9.585
               3        0.000      0.38342927625315E+01       104.336
 D
               1        0.000      0.10658965783141E+01        29.005


 Partially Occupied:
               1 P                -0.33400585272070E+00
  
 HOMO :        1 S                -0.88272313143209E+00
 LUMO :        2 P                 0.35224911365993E+00
  


 Orbital Energies, all Irreps
 ========================================

 Irrep        no.  (spin)   Occup              E (au)                E (eV)
 ---------------------------------------------------------------------------
 S             1             2.00       -0.88272313143209E+00       -24.0201
 P             1             4.00       -0.33400585272070E+00        -9.0888
 P             2             0.00        0.35224911365993E+00         9.5852
 S             2             0.00        0.90601345014671E+00        24.6539
 D             1             0.00        0.10658965783141E+01        29.0045
 P             3             0.00        0.38342927625315E+01       104.3364
 S             3             0.00        0.29578810816937E+02       804.8804


 Scaled ZORA Orbital Energies of the Core Orbitals:
 ==================================================

 (Note that the atoms are grouped by atomtype, see the labels, and may hence NOT be in input order)

 AtomType  Orbital  Atom                   E (au)                        E (eV)
 --------  -------  ----           --------------------        ----------------
 O           1S        1          -0.18925919758629E+02                -515.000



 =======================================
 M U L L I K E N   P O P U L A T I O N S
 =======================================
  
 The survey below gives for each atom:
 a) the total charge (Z minus electrons)
 b) the net spin polarization (nr of electrons spin-A minus spin-B)
 c) for each spin the atomic electron valence density (integrated) per L-value.

 Atom              Charge    Spin density          S         P         D         F
 ----              ------    ------------       ------    ------    ------    ------
 1 O              -0.0000                       2.0000    4.0000    0.0000    0.0000

 Populations of individual BAS functions
 ----------------------------------------
 1 O            0.0005  0.9226  1.0966 -0.0196  0.3346  0.3346  0.3346  0.7512  0.7512  0.7512
                0.2476  0.2476  0.2476  0.0000  0.0000  0.0000  0.0000  0.0000  0.0000

 Gross Charges per Atom (Z minus electrons)
 ==========================================
            -0.0000
 Net Total: -0.00000000



 =======================================================================
 Electrostatic potential at the Nuclei due to electrons and other nuclei
 =======================================================================
  
         Atom                  Potential
         ----                  ---------
     1)   O                  22.20265662
 
 
 ========================
 No memory problems found
 ========================
 
 Maximum number of active allocate calls:         389
 
 *******************************************************************************

                             A D F   E X I T
 NORMAL TERMINATION



 =================
 Timing Statistics
 =================
  
 Total Used :                     CPU=        0.42      System=        0.04     Elapsed=        0.50

 Calls  Section                     ( Mean, Percentage )
 ---------------------------------------------------------------------------------------------------
     3  ><      ................      0.00    0.94             0.00    0.00             0.00    0.91
     1  INIT    ................      0.06   15.09             0.01   30.00             0.08   16.11
     1  GEOMET  ................      0.01    2.83             0.00   10.00             0.02    4.94
     1  INPUTA  ................      0.00    0.94             0.00    0.00             0.00    0.71
     1  MAINSY  ................      0.01    1.89             0.00   10.00             0.01    2.81
     1  SYMFIT  ................      0.00    0.00             0.00    0.00             0.00    0.35
     1  CORORT  ................      0.00    0.00             0.00    0.00             0.00    0.33
     1  SYMORB  ................      0.00    0.00             0.00   10.00             0.00    0.18
     1  CLSMAT  ................      0.00    0.94             0.00    0.00             0.01    1.21
     1  ORTHON  ................      0.00    0.94             0.00    0.00             0.01    1.09
     1  GENPT   ................      0.02    3.77             0.00    0.00             0.02    3.09
     1  PTBAS   ................      0.00    0.94             0.00    0.00             0.01    1.16
    11  FOCKY   ................      0.02   57.55             0.00   20.00             0.02   51.36
    11  FOCKTR  ................      0.00    0.94             0.00    0.00             0.00    1.55
    11  SDIIS   ................      0.00    5.66             0.00   10.00             0.00    6.29
     1  COREPS  ................      0.01    2.83             0.00   10.00             0.02    3.67
     1  POPAN   ................      0.00    0.94             0.00    0.00             0.01    1.12
     1  DEBYE   ................      0.00    0.94             0.00    0.00             0.00    0.39
     1  EXIT PROCEDURE .........      0.01    2.83             0.00    0.00             0.01    2.74


 Currently Open Files (EXIT00)
 ====================

 Unit    Access Format  Status   Type       Ident (file)
 -------------------------------------------------------
   3      SEQ    FORM   TRANSP  NORMAL      LOGFILE
                                          ( logfile )

 ***************************************************************************************************
 (LOGFILE)
 <Sep08-2020> <01:39:11>  DIRAC 2019  RunTime: Sep08-2020 01:39:11  Nodes: 1  Procs: 1
 <Sep08-2020> <01:39:11>  NORMAL TERMINATION
 <Sep08-2020> <01:39:11>  END
 <Sep08-2020> <01:39:11>  ADF 2019  RunTime: Sep08-2020 01:39:11  Nodes: 1  Procs: 1
 <Sep08-2020> <01:39:11>  Hydrogen (TZP)
 <Sep08-2020> <01:39:11>  RunType   : CREATE
 <Sep08-2020> <01:39:11>  Net Charge: 0 (Nuclei minus Electrons)
 <Sep08-2020> <01:39:11>  Symmetry  : ATOM
  Coordinates
    Atom         X           Y           Z   (Angstrom)
    1.H         0.000000    0.000000    0.000000
 <Sep08-2020> <01:39:11>  >>>> CORORT
 <Sep08-2020> <01:39:11>  >>>> CLSMAT
 <Sep08-2020> <01:39:11>  >>>> ORTHON
 <Sep08-2020> <01:39:11>  >>>> GENPT
 <Sep08-2020> <01:39:11>  Block Length=  64
 <Sep08-2020> <01:39:11>  >>>> PTBAS
 <Sep08-2020> <01:39:11>  >>>> CYCLE
 <Sep08-2020> <01:39:11>              |Error|         MaxErr       Wt(A-DIIS)
 <Sep08-2020> <01:39:11>      1      0.00000000      0.00000000
 <Sep08-2020> <01:39:11>      2      0.03153787      0.03011049
 <Sep08-2020> <01:39:11>      3      0.00861799      0.00834303    100.0
 <Sep08-2020> <01:39:11>      4      0.00173235      0.00171862      0.7
 <Sep08-2020> <01:39:11>      5      0.00004367      0.00003977      0.0
 <Sep08-2020> <01:39:11>      6      0.00000238      0.00000216      0.0
 <Sep08-2020> <01:39:11>      7      0.00000001      0.00000001      0.0
 <Sep08-2020> <01:39:11>  SCF converged
 <Sep08-2020> <01:39:11>      8      0.00000000      0.00000000      0.0
 <Sep08-2020> <01:39:11>  >>>> POPAN
 <Sep08-2020> <01:39:11>  >>>> DEBYE
 <Sep08-2020> <01:39:11>  NORMAL TERMINATION
 <Sep08-2020> <01:39:11>  END
 <Sep08-2020> <01:39:11>  DIRAC 2019  RunTime: Sep08-2020 01:39:11  Nodes: 1  Procs: 1
 <Sep08-2020> <01:39:11>  NORMAL TERMINATION
 <Sep08-2020> <01:39:11>  END
 <Sep08-2020> <01:39:11>  ADF 2019  RunTime: Sep08-2020 01:39:11  Nodes: 1  Procs: 1
 <Sep08-2020> <01:39:11>  Oxygen (TZP, 1s frozen)
 <Sep08-2020> <01:39:11>  RunType   : CREATE
 <Sep08-2020> <01:39:11>  Net Charge: 0 (Nuclei minus Electrons)
 <Sep08-2020> <01:39:11>  Symmetry  : ATOM
  Coordinates
    Atom         X           Y           Z   (Angstrom)
    1.O         0.000000    0.000000    0.000000
 <Sep08-2020> <01:39:11>  >>>> CORORT
 <Sep08-2020> <01:39:11>  >>>> CLSMAT
 <Sep08-2020> <01:39:11>  >>>> ORTHON
 <Sep08-2020> <01:39:11>  >>>> GENPT
 <Sep08-2020> <01:39:12>  Block Length=  68
 <Sep08-2020> <01:39:12>  >>>> PTBAS
 <Sep08-2020> <01:39:12>  >>>> CYCLE
 <Sep08-2020> <01:39:12>              |Error|         MaxErr       Wt(A-DIIS)
 <Sep08-2020> <01:39:12>      1      0.00000000      0.00000000
 <Sep08-2020> <01:39:12>      2      4.56299337      2.52897111
 <Sep08-2020> <01:39:12>      3      2.72315525      1.79866705    100.0
 <Sep08-2020> <01:39:12>      4      0.28902714      0.13064862    100.0
 <Sep08-2020> <01:39:12>      5      0.41661509      0.23264367    100.0
 <Sep08-2020> <01:39:12>      6      0.01372327      0.00671904      5.8
 <Sep08-2020> <01:39:12>      7      0.00110365      0.00063404      0.0
 <Sep08-2020> <01:39:12>      8      0.00003592      0.00002026      0.0
 <Sep08-2020> <01:39:12>      9      0.00000033      0.00000018      0.0
 <Sep08-2020> <01:39:12>     10      0.00000000      0.00000000      0.0
 <Sep08-2020> <01:39:12>  SCF converged
 <Sep08-2020> <01:39:12>     11      0.00000000      0.00000000      0.0
 <Sep08-2020> <01:39:12>  >>>> POPAN
 <Sep08-2020> <01:39:12>  >>>> DEBYE
 <Sep08-2020> <01:39:12>  NORMAL TERMINATION
 <Sep08-2020> <01:39:12>  END

 *******************************************************************************
 *                                                                             *
 *  -------------------------------------                                      *
 *   Amsterdam Density Functional  (ADF)         2019                          *
 *  -------------------------------------                                      *
 *                                               r79301 2019-11-09             *
 *                                                                             *
 *                                                                             *
 *                            =====================                            *
 *                            |                   |                            *
 *                            |     D I R A C     |                            *
 *                            |                   |                            *
 *                            =====================                            *
 *                                                                             *
 *                                                                             *
 *   Online information and documentation:  https://www.scm.com/support/       *
 *   E-mail:  support@scm.com   info@scm.com                                   *
 *                                                                             *
 *   Scientific publications using ADF results must be properly referenced     *
 *   See the User Manuals (or the web site) for recommended citations          *
 *   The terms and conditions of the End User License Agreement apply to       *
 *   the use of ADF, https://www.scm.com/license-terms/                        *
 *                                                                             *
 **********************  x86_64_linux_intel / intelmpi  ************************
 
 
 
  
 DIRAC 2019  RunTime: Sep08-2020 01:39:12  Nodes: 1  Procs: 1

 Temporary files are created in /scratch/kid_0.98942464 (0x58465342)

1
 TUNGSTEN ATOM 4d CORE RELATIVISTIC, Point Nuc, A and c from 
 N J RN H ZN XION ANUC CLIGHT
 5000   22100.00000000197.36710137 74.00000000  0.00000000  183.950932  0.1370360E+03
  PH   PHI     EPS        DEL        DELRVR
  0.30  0.30     2500.00  0.00001000  0.00001000
 IDIRC  NC1  NDEBU NPRIN  IPUN IRCOR IWCOR
   1   300     0     0     0     0    14
   XALPHA      XLATTER      RNUC
  0.70000000  0.00000000  0.00000000 Point Charge
   XN   XL   XJ      XE          XZ      XDELL
  1.0  0.0  0.5   -2600.000       2.000     0.00000
  2.0  0.0  0.5    -425.000       2.000     0.00000
  2.0  1.0  0.5    -425.000       2.000     0.00000
  2.0  1.0  1.5    -425.000       4.000     0.00000
  3.0  0.0  0.5    -100.000       2.000     0.00000
  3.0  1.0  0.5    -100.000       2.000     0.00000
  3.0  1.0  1.5    -100.000       4.000     0.00000
  3.0  2.0  1.5     -80.000       4.000     0.00000
  3.0  2.0  2.5     -80.000       6.000     0.00000
  4.0  0.0  0.5     -22.000       2.000     0.00000
  4.0  1.0  0.5     -20.000       2.000     0.00000
  4.0  1.0  1.5     -20.000       4.000     0.00000
  4.0  2.0  1.5     -11.000       4.000     0.00000
  4.0  2.0  2.5     -11.000       6.000     0.00000
  4.0  3.0  2.5      -1.000       6.000     0.00000
  4.0  3.0  3.5      -1.000       8.000     0.00000
  5.0  0.0  0.5      -3.000       2.000     0.00000
  5.0  1.0  0.5      -2.200       2.000     0.00000
  5.0  1.0  1.5      -2.200       4.000     0.00000
  5.0  2.0  1.5      -0.500       4.000     0.00000
  5.0  2.0  2.5      -0.500       0.000     0.00000
  6.0  0.0  0.5      -0.200       2.000     0.00000
 ICORP=  0  NPCL=  0  DEMP=0.00  PEPS=0.000000
 R(1)=  0.1000000E-08 D=  0.1005080E+01 RNUC=  0.0000000E+00
 converged at cycle   63  DENSITY AVERAGING    0.1536
  MAXIMUM ERROR IN R.V(R) IS   0.78838062E-05
 Q,EY,EV,EZ,ESUM,ETOT,RHO  0.740000E+02 -0.431420E+03 -0.281568E+05 -0.403919E+05 -0.993885E+04 -0.161643E+05  0.726391E-09


 DIRAC CALCULATION
1                    TUNGSTEN ATOM 4d CORE RELATIVISTIC, Point Nuc, A and c from libtc


 EXCHANGE COEFFICIENT=  0.7000000           TAIL CORRECTION=  0.           NUCLEAR RADIUS=  0.000E+00
0                       ORBITAL    N    L    J     ELECTRONS     EIGENVALUE                DELTA OF EIGENV.

                          1S1/2  1.0  0.0  0.5     2.000       -0.2549514E+04                 0.5980248E-04
                          2S1/2  2.0  0.0  0.5     2.000       -0.4399118E+03                 0.5052420E-04
                          2P1/2  2.0  1.0  0.5     2.000       -0.4208427E+03                 0.5265062E-04
                          2P3/2  2.0  1.0  1.5     4.000       -0.3711192E+03                 0.5139441E-04
                          3S1/2  3.0  0.0  0.5     2.000       -0.1012881E+03                 0.3437035E-04
                          3P1/2  3.0  1.0  0.5     2.000       -0.9277148E+02                 0.3553128E-04
                          3P3/2  3.0  1.0  1.5     4.000       -0.8201733E+02                 0.3404634E-04
                          3D3/2  3.0  2.0  1.5     4.000       -0.6762803E+02                 0.3680712E-04
                          3D5/2  3.0  2.0  2.5     6.000       -0.6528623E+02                 0.3629511E-04
                          4S1/2  4.0  0.0  0.5     2.000       -0.2084139E+02                 0.1939427E-04
                          4P1/2  4.0  1.0  0.5     2.000       -0.1730737E+02                 0.1933978E-04
                          4P3/2  4.0  1.0  1.5     4.000       -0.1480597E+02                 0.1810922E-04
                          4D3/2  4.0  2.0  1.5     4.000       -0.8989319E+01                 0.1779394E-04
                          4D5/2  4.0  2.0  2.5     6.000       -0.8528007E+01                 0.1741170E-04
                          4F5/2  4.0  3.0  2.5     6.000       -0.1237480E+01                 0.1544089E-04
                          4F7/2  4.0  3.0  3.5     8.000       -0.1154634E+01                 0.1522033E-04
                          5S1/2  5.0  0.0  0.5     2.000       -0.2863514E+01                 0.7979521E-05
                          5P1/2  5.0  1.0  0.5     2.000       -0.1813289E+01                 0.7246225E-05
                          5P3/2  5.0  1.0  1.5     4.000       -0.1448762E+01                 0.6602120E-05
                          5D3/2  5.0  2.0  1.5     4.000       -0.1486933E+00                 0.3973088E-05
                          5D5/2  5.0  2.0  2.5     0.000       -0.1223153E+00                 0.3735081E-05
                          6S1/2  6.0  0.0  0.5     2.000       -0.1847434E+00                 0.1808440E-05


                                        NUCLEAR CHARGE=   74.000000
                            INTEGRAL OF CHARGE DENSITY=   74.000000
                           SUM OF THE ORBITAL ENERGIES=  -9938.8529
                                          TOTAL ENERGY= -16164.2530
                                        KINETIC ENERGY=  18217.9700
                             NUCLEAR ATTRACTION ENERGY= -40391.9132
                             ELECTRON REPULSION ENERGY=   6333.2551
                                       EXCHANGE ENERGY=   -323.5649

 *******************************************************************************

                             D I R A C   E X I T
 NORMAL TERMINATION



 =================
 Timing Statistics
 =================
  
 Total Used :                     CPU=        0.68      System=        0.00     Elapsed=        0.70

 Calls  Section                     ( Mean, Percentage )
 ---------------------------------------------------------------------------------------------------
     2  ><      ................      0.00    0.00             0.00    0.00             0.00    0.00
     1  EXIT PROCEDURE .........      0.68  100.00             0.00    0.00             0.70  100.00


 Currently Open Files (EXIT00)
 ====================

 Unit    Access Format  Status   Type       Ident (file)
 -------------------------------------------------------
   3      SEQ    FORM   TRANSP  NORMAL      LOGFILE
                                          ( logfile )
 
Create W   file=TZP-W.4d
XC
  GGA PBE
End
relativistic ZORA
Corepotentials t12.rel
End

 *******************************************************************************
 *                                                                             *
 *  -------------------------------------                                      *
 *   Amsterdam Density Functional  (ADF)         2019                          *
 *  -------------------------------------                                      *
 *                                               r79301 2019-11-09             *
 *                                                                             *
 *                                                                             *
 *                              =================                              *
 *                              |               |                              *
 *                              |     A D F     |                              *
 *                              |               |                              *
 *                              =================                              *
 *                                                                             *
 *                                                                             *
 *   Online information and documentation:  https://www.scm.com/support/       *
 *   E-mail:  support@scm.com   info@scm.com                                   *
 *                                                                             *
 *   Scientific publications using ADF results must be properly referenced     *
 *   See the User Manuals (or the web site) for recommended citations          *
 *   The terms and conditions of the End User License Agreement apply to       *
 *   the use of ADF, https://www.scm.com/license-terms/                        *
 *                                                                             *
 **********************  x86_64_linux_intel / intelmpi  ************************
 
 
 
  
 ADF 2019  RunTime: Sep08-2020 01:39:13  Nodes: 1  Procs: 1

 Temporary files are created in /scratch/kid_0.1076668886 (0x58465342)

 Tungsten (TZP, 4d frozen)



 ===========================
 A T T A C H E D   F I L E S
 ===========================
  
 CREATE - Data File:    TZP-W.4d
                        Tungsten (TZP, 4d frozen)
 Core Potentials:
         file : t12.rel



 ===============================
 M O D E L   P A R A M E T E R S
 ===============================
  
 DENSITY FUNCTIONAL POTENTIAL (scf)
    LDA:                               PW92                                    == Not Default ==
    Gradient Corrections:              PBEc PBEx                               == Not Default ==

 SPIN  (restricted / unrestr.)
    Molecule:                          Restricted                               

 OTHER ASPECTS
    Relativistic Corrections:          scalar (ZORA,MAPA)                      == Not Default ==

    Nuclear Charge Density Model:      Point Charge Nuclei                      
    Core Treatment:                    Frozen Orbital(s)                        

    Hyperfine or Zeeman Interaction:   ---                                      



 =====================================
 S Y M M E T R Y ,   E L E C T R O N S
 =====================================
  
 Symmetry: ATOM

 Irreducible Representations, including subspecies
 -------------------------------------------------
 S
 P:x  P:y  P:z
 D:z2  D:x2-y2  D:xy  D:xz  D:yz
 F:z3  F:z  F:xyz  F:z2x  F:z2y  F:x  F:y


 Configuration of Valence Electrons
 ==================================

          Occupation Numbers
          -------------------------------------------------
 S        2*2
 P        6
 D        4
 F        14
          -------------------------------------------------

 Total:   28

 Net Charge: 0 (Nuclei minus Electrons)

 Preset values for MO occupations will be applied through SCF cycle no. 1000000
 Thereafter, the program will assign electrons to MOs that are spatially
 similar to the occupied MOs in a "reference" cycle ("KeepOrbitals").
 The reference cycle is always the PREVIOUS cycle: it will evolve with
 the SCF procedure.



 ================================
 (Slater-type)  F U N C T I O N S  ***  (Basis and Fit)  ***
 ================================
  

 Atom Type    1  (W)
 ==============

 Valence Basis Sets:  25
 -----------------------
   1 S   52.000000
   2 S   33.250000
   3 S   19.100000
   4 S   11.650000
   2 P   36.850000
   3 P   16.500000
   4 P   11.550000
   3 D   20.100000
   4 D   10.300000
   1 S  163.900000
   5 S    6.050000
   5 S    3.950000
   6 S    2.850000
   6 S    1.800000
   6 S    1.140000
   5 P    5.900000
   5 P    4.000000
   5 P    2.700000
   5 D    4.150000
   5 D    2.250000
   5 D    1.200000
   4 F   13.550000
   4 F    7.050000
   4 F    3.550000
   6 P    1.800000

 Frozen Core Shells
 ------------------
    S:  4
    P:  3
    D:  2


 BAS: List of all Elementary Cartesian Basis Functions
 =====================================================

 The numbering in the list below (to the right of the function characteristics) is referred
 to in print-outs of MO eigenvectors and Mulliken populations in the BAS representation
 (as contrasted to the SFO representation).

 Notes:
 1. The functions are characterized by a polynomial prefactor (powers of x,y,z and r) and
    an exponential decay factor alpha.
 2. Since the basis sets are specific for an atom TYPE, the individual functions occur on
    all atoms of that type.
 3. The word 'Core' in the left margin signals that it is a Core Function (CF) : not a
    degree of freedom in the valence set, but only used to ensure orthogonalization of
    the other valence basis functions on the frozen Core Orbitals.


 (power of) X  Y  Z  R     Alpha  on Atom
            ==========     =====     ==========

 W                                    1
                                  ---------------------------------------------------------------------------
    Core    0  0  0  0    52.000      1
    Core    0  0  0  1    33.250      2
    Core    0  0  0  2    19.100      3
    Core    0  0  0  3    11.650      4
    Core    1  0  0  0    36.850      5
    Core    0  1  0  0    36.850      6
    Core    0  0  1  0    36.850      7
    Core    1  0  0  1    16.500      8
    Core    0  1  0  1    16.500      9
    Core    0  0  1  1    16.500     10
    Core    1  0  0  2    11.550     11
    Core    0  1  0  2    11.550     12
    Core    0  0  1  2    11.550     13
    Core    2  0  0  0    20.100     14
    Core    1  1  0  0    20.100     15
    Core    1  0  1  0    20.100     16
    Core    0  2  0  0    20.100     17
    Core    0  1  1  0    20.100     18
    Core    0  0  2  0    20.100     19
    Core    2  0  0  1    10.300     20
    Core    1  1  0  1    10.300     21
    Core    1  0  1  1    10.300     22
    Core    0  2  0  1    10.300     23
    Core    0  1  1  1    10.300     24
    Core    0  0  2  1    10.300     25
            0  0  0  0   163.900     26
            0  0  0  4     6.050     27
            0  0  0  4     3.950     28
            0  0  0  5     2.850     29
            0  0  0  5     1.800     30
            0  0  0  5     1.140     31
            1  0  0  3     5.900     32
            0  1  0  3     5.900     33
            0  0  1  3     5.900     34
            1  0  0  3     4.000     35
            0  1  0  3     4.000     36
            0  0  1  3     4.000     37
            1  0  0  3     2.700     38
            0  1  0  3     2.700     39
            0  0  1  3     2.700     40
            2  0  0  2     4.150     41
            1  1  0  2     4.150     42
            1  0  1  2     4.150     43
            0  2  0  2     4.150     44
            0  1  1  2     4.150     45
            0  0  2  2     4.150     46
            2  0  0  2     2.250     47
            1  1  0  2     2.250     48
            1  0  1  2     2.250     49
            0  2  0  2     2.250     50
            0  1  1  2     2.250     51
            0  0  2  2     2.250     52
            2  0  0  2     1.200     53
            1  1  0  2     1.200     54
            1  0  1  2     1.200     55
            0  2  0  2     1.200     56
            0  1  1  2     1.200     57
            0  0  2  2     1.200     58
            3  0  0  0    13.550     59
            2  1  0  0    13.550     60
            2  0  1  0    13.550     61
            1  2  0  0    13.550     62
            1  1  1  0    13.550     63
            1  0  2  0    13.550     64
            0  3  0  0    13.550     65
            0  2  1  0    13.550     66
            0  1  2  0    13.550     67
            0  0  3  0    13.550     68
            3  0  0  0     7.050     69
            2  1  0  0     7.050     70
            2  0  1  0     7.050     71
            1  2  0  0     7.050     72
            1  1  1  0     7.050     73
            1  0  2  0     7.050     74
            0  3  0  0     7.050     75
            0  2  1  0     7.050     76
            0  1  2  0     7.050     77
            0  0  3  0     7.050     78
            3  0  0  0     3.550     79
            2  1  0  0     3.550     80
            2  0  1  0     3.550     81
            1  2  0  0     3.550     82
            1  1  1  0     3.550     83
            1  0  2  0     3.550     84
            0  3  0  0     3.550     85
            0  2  1  0     3.550     86
            0  1  2  0     3.550     87
            0  0  3  0     3.550     88
            1  0  0  4     1.800     89
            0  1  0  4     1.800     90
            0  0  1  4     1.800     91

 Total number of charge fitting functions (nprimf)       329
 Total number of Cartesian basis functions (naos)         91
 Total number of Cartesian core functions  (ncos)         25



 BAS: List of all Elementary Cartesian Basis Functions
 =====================================================

 The numbering in the list below (to the right of the function characteristics) is referred
 to in print-outs of MO eigenvectors and Mulliken populations in the BAS representation
 (as contrasted to the SFO representation).

 Notes:
 1. The functions are characterized by a polynomial prefactor (powers of x,y,z and r) and
    an exponential decay factor alpha.
 2. Since the basis sets are specific for an atom TYPE, the individual functions occur on
    all atoms of that type.
 3. The word 'Core' in the left margin signals that it is a Core Function (CF) : not a
    degree of freedom in the valence set, but only used to ensure orthogonalization of
    the other valence basis functions on the frozen Core Orbitals.


 (power of) X  Y  Z  R     Alpha  on Atom
            ==========     =====     ==========

 W                                    1
                                  ---------------------------------------------------------------------------
    Core    0  0  0  0    52.000      1
    Core    0  0  0  1    33.250      2
    Core    0  0  0  2    19.100      3
    Core    0  0  0  3    11.650      4
    Core    1  0  0  0    36.850      5
    Core    0  1  0  0    36.850      6
    Core    0  0  1  0    36.850      7
    Core    1  0  0  1    16.500      8
    Core    0  1  0  1    16.500      9
    Core    0  0  1  1    16.500     10
    Core    1  0  0  2    11.550     11
    Core    0  1  0  2    11.550     12
    Core    0  0  1  2    11.550     13
    Core    2  0  0  0    20.100     14
    Core    1  1  0  0    20.100     15
    Core    1  0  1  0    20.100     16
    Core    0  2  0  0    20.100     17
    Core    0  1  1  0    20.100     18
    Core    0  0  2  0    20.100     19
    Core    2  0  0  1    10.300     20
    Core    1  1  0  1    10.300     21
    Core    1  0  1  1    10.300     22
    Core    0  2  0  1    10.300     23
    Core    0  1  1  1    10.300     24
    Core    0  0  2  1    10.300     25
            0  0  0  0   163.900     26
            0  0  0  4     6.050     27
            0  0  0  4     3.950     28
            0  0  0  5     2.850     29
            0  0  0  5     1.800     30
            0  0  0  5     1.140     31
            1  0  0  3     5.900     32
            0  1  0  3     5.900     33
            0  0  1  3     5.900     34
            1  0  0  3     4.000     35
            0  1  0  3     4.000     36
            0  0  1  3     4.000     37
            1  0  0  3     2.700     38
            0  1  0  3     2.700     39
            0  0  1  3     2.700     40
            2  0  0  2     4.150     41
            1  1  0  2     4.150     42
            1  0  1  2     4.150     43
            0  2  0  2     4.150     44
            0  1  1  2     4.150     45
            0  0  2  2     4.150     46
            2  0  0  2     2.250     47
            1  1  0  2     2.250     48
            1  0  1  2     2.250     49
            0  2  0  2     2.250     50
            0  1  1  2     2.250     51
            0  0  2  2     2.250     52
            2  0  0  2     1.200     53
            1  1  0  2     1.200     54
            1  0  1  2     1.200     55
            0  2  0  2     1.200     56
            0  1  1  2     1.200     57
            0  0  2  2     1.200     58
            3  0  0  0    13.550     59
            2  1  0  0    13.550     60
            2  0  1  0    13.550     61
            1  2  0  0    13.550     62
            1  1  1  0    13.550     63
            1  0  2  0    13.550     64
            0  3  0  0    13.550     65
            0  2  1  0    13.550     66
            0  1  2  0    13.550     67
            0  0  3  0    13.550     68
            3  0  0  0     7.050     69
            2  1  0  0     7.050     70
            2  0  1  0     7.050     71
            1  2  0  0     7.050     72
            1  1  1  0     7.050     73
            1  0  2  0     7.050     74
            0  3  0  0     7.050     75
            0  2  1  0     7.050     76
            0  1  2  0     7.050     77
            0  0  3  0     7.050     78
            3  0  0  0     3.550     79
            2  1  0  0     3.550     80
            2  0  1  0     3.550     81
            1  2  0  0     3.550     82
            1  1  1  0     3.550     83
[...]
   17.O         0.034042   -1.848047    1.183927
   18.O         0.090631    1.824055    2.333426
   19.O         0.160964   -0.520509    3.799237
   20.O        -2.023566   -1.594184   -0.595210
   21.O         1.894932    1.528814   -1.141671
   22.H        -0.159196   -0.597007   -2.866794
 <Sep08-2020> <02:41:04>  >>>> CORORT
 <Sep08-2020> <02:41:04>  >>>> CLSMAT
 <Sep08-2020> <02:41:04>  >>>> ORTHON
 <Sep08-2020> <02:41:04>  >>>> GENPT
 <Sep08-2020> <02:41:04>  Block Length= 128
 <Sep08-2020> <02:41:05>  >>>> PTBAS
 <Sep08-2020> <02:41:08>  combining surface points...
 <Sep08-2020> <02:41:08>  combining surface points...
 <Sep08-2020> <02:41:08>  combining surface points...
 <Sep08-2020> <02:41:08>  combining surface points...
 <Sep08-2020> <02:41:08>  >>>> CYCLE
 <Sep08-2020> <02:41:16>              |Error|         MaxErr       Wt(A-DIIS)
 <Sep08-2020> <02:41:16>      1      0.25496970      0.10374948
 <Sep08-2020> <02:41:20>      2      0.35961335      0.06589470    100.0
 <Sep08-2020> <02:41:24>      3      0.11032190      0.01081806    100.0
 <Sep08-2020> <02:41:27>      4      0.10700200      0.01908195     18.3
 <Sep08-2020> <02:41:31>      5      0.17954726      0.02537273    100.0
 <Sep08-2020> <02:41:35>      6      0.08384366      0.01020877      9.3
 <Sep08-2020> <02:41:39>      7      0.03182296      0.00600640      5.1
 <Sep08-2020> <02:41:43>      8      0.01623309      0.00303640      2.1
 <Sep08-2020> <02:41:47>      9      0.00571006      0.00098367      0.0
 <Sep08-2020> <02:41:51>     10      0.00413878      0.00065395      0.0
 <Sep08-2020> <02:41:55>     11      0.00084858      0.00014600      0.0
 <Sep08-2020> <02:41:58>     12      0.00040777      0.00006367      0.0
 <Sep08-2020> <02:42:02>     13      0.00015516      0.00002584      0.0
 <Sep08-2020> <02:42:06>     14      0.00009945      0.00001427      0.0
 <Sep08-2020> <02:42:10>     15      0.00003441      0.00000656      0.0
 <Sep08-2020> <02:42:13>     16      0.00002500      0.00000527      0.0
 <Sep08-2020> <02:42:17>     17      0.00001938      0.00000253      0.0
 <Sep08-2020> <02:42:20>     18      0.00000368      0.00000056      0.0
 <Sep08-2020> <02:42:22>  SCF converged
 <Sep08-2020> <02:42:24>     19      0.00000485      0.00000073      0.0
 <Sep08-2020> <02:42:25>  >>>> TOTEN
 <Sep08-2020> <02:42:30>  >>>> POPAN
 <Sep08-2020> <02:42:30>  >>>> DEBYE
 <Sep08-2020> <02:42:31>  >>>> ENGRAD
 <Sep08-2020> <02:42:44>  current energy                               -6.84446874 Hartree
 <Sep08-2020> <02:42:44>  energy change                      -0.00000639     0.00100000    T
 <Sep08-2020> <02:42:44>  constrained gradient max            0.00196009     0.00100000    F
 <Sep08-2020> <02:42:44>  constrained gradient rms            0.00046763     0.00066667    T
 <Sep08-2020> <02:42:44>  gradient max                        0.00196009
 <Sep08-2020> <02:42:44>  gradient rms                        0.00046763
 <Sep08-2020> <02:42:44>  cart. step max                      0.00929144     0.01000000    T
 <Sep08-2020> <02:42:44>  cart. step rms                      0.00244134     0.00666667    T
  Coordinates in Geometry Cycle 38
    Atom         X           Y           Z   (Angstrom)
    1.W         2.455422    0.047888   -0.150126
    2.W        -2.499361    0.048511    0.086315
    3.W        -0.048793   -2.061119   -0.656088
    4.W        -0.085327    1.818913   -1.409665
    5.W         0.084820    0.087738    2.181024
    6.O        -0.020300    0.251044   -0.132449
    7.O         4.172999    0.051897   -0.226055
    8.O        -4.216881    0.046195    0.159440
    9.O         1.926084   -1.602044   -0.773524
   10.O        -2.028072    1.530140   -0.948472
   11.O         2.033865    0.031111    1.641840
   12.O        -1.910982    0.033855    1.829787
   13.O        -0.130762   -1.510670   -2.499797
   14.O        -0.165640    1.401002   -3.100358
   15.O        -0.060447   -3.771353   -0.858021
   16.O        -0.072251    3.541726   -1.190024
   17.O         0.033346   -1.847810    1.182101
   18.O         0.092499    1.824251    2.337993
   19.O         0.161649   -0.522328    3.800952
   20.O        -2.024940   -1.594805   -0.595677
   21.O         1.892589    1.528776   -1.139428
   22.H        -0.152291   -0.594137   -2.866759
 <Sep08-2020> <02:42:44>  >>>> CORORT
 <Sep08-2020> <02:42:44>  >>>> CLSMAT
 <Sep08-2020> <02:42:44>  >>>> ORTHON
 <Sep08-2020> <02:42:44>  >>>> GENPT
 <Sep08-2020> <02:42:44>  Block Length= 128
 <Sep08-2020> <02:42:45>  >>>> PTBAS
 <Sep08-2020> <02:42:48>  combining surface points...
 <Sep08-2020> <02:42:48>  combining surface points...
 <Sep08-2020> <02:42:48>  combining surface points...
 <Sep08-2020> <02:42:48>  >>>> CYCLE
 <Sep08-2020> <02:42:56>              |Error|         MaxErr       Wt(A-DIIS)
 <Sep08-2020> <02:42:56>      1      0.31931450      0.12998710
 <Sep08-2020> <02:43:00>      2      0.35723798      0.06525379    100.0
 <Sep08-2020> <02:43:04>      3      0.10944505      0.01073133    100.0
 <Sep08-2020> <02:43:07>      4      0.10665150      0.01893473     18.1
 <Sep08-2020> <02:43:11>      5      0.17809376      0.02509204    100.0
 <Sep08-2020> <02:43:15>      6      0.08311799      0.01008221      9.2
 <Sep08-2020> <02:43:19>      7      0.03158381      0.00594347      5.0
 <Sep08-2020> <02:43:23>      8      0.01610556      0.00302313      2.0
 <Sep08-2020> <02:43:27>      9      0.00565812      0.00096967      0.0
 <Sep08-2020> <02:43:31>     10      0.00411119      0.00064887      0.0
 <Sep08-2020> <02:43:35>     11      0.00084210      0.00014510      0.0
 <Sep08-2020> <02:43:38>     12      0.00040418      0.00006377      0.0
 <Sep08-2020> <02:43:42>     13      0.00015338      0.00002537      0.0
 <Sep08-2020> <02:43:46>     14      0.00009901      0.00001415      0.0
 <Sep08-2020> <02:43:49>     15      0.00003382      0.00000644      0.0
 <Sep08-2020> <02:43:53>     16      0.00002468      0.00000521      0.0
 <Sep08-2020> <02:43:57>     17      0.00001895      0.00000249      0.0
 <Sep08-2020> <02:44:00>     18      0.00000353      0.00000053      0.0
 <Sep08-2020> <02:44:01>  SCF converged
 <Sep08-2020> <02:44:04>     19      0.00000462      0.00000070      0.0
 <Sep08-2020> <02:44:05>  >>>> TOTEN
 <Sep08-2020> <02:44:10>  >>>> POPAN
 <Sep08-2020> <02:44:10>  >>>> DEBYE
 <Sep08-2020> <02:44:10>  >>>> ENGRAD
 <Sep08-2020> <02:44:24>  current energy                               -6.84447112 Hartree
 <Sep08-2020> <02:44:24>  energy change                      -0.00000238     0.00100000    T
 <Sep08-2020> <02:44:24>  constrained gradient max            0.00154776     0.00100000    F
 <Sep08-2020> <02:44:24>  constrained gradient rms            0.00041555     0.00066667    T
 <Sep08-2020> <02:44:24>  gradient max                        0.00154776
 <Sep08-2020> <02:44:24>  gradient rms                        0.00041555
 <Sep08-2020> <02:44:24>  cart. step max                      0.00318745     0.01000000    T
 <Sep08-2020> <02:44:24>  cart. step rms                      0.00110590     0.00666667    T
  Coordinates in Geometry Cycle 39
    Atom         X           Y           Z   (Angstrom)
    1.W         2.454984    0.047626   -0.149173
    2.W        -2.497425    0.048584    0.085996
    3.W        -0.049358   -2.061851   -0.656447
    4.W        -0.085766    1.820120   -1.409216
    5.W         0.084951    0.087957    2.181580
    6.O        -0.022843    0.252015   -0.130852
    7.O         4.172338    0.051406   -0.228811
    8.O        -4.214910    0.047058    0.160133
    9.O         1.925052   -1.601473   -0.773993
   10.O        -2.028103    1.531531   -0.948550
   11.O         2.034249    0.030505    1.642763
   12.O        -1.910420    0.032812    1.830219
   13.O        -0.130267   -1.511786   -2.500453
   14.O        -0.164218    1.399983   -3.099458
   15.O        -0.060517   -3.772057   -0.858293
   16.O        -0.073587    3.543426   -1.193211
   17.O         0.033420   -1.847744    1.181590
   18.O         0.092797    1.824588    2.338213
   19.O         0.161251   -0.522692    3.801378
   20.O        -2.025328   -1.595549   -0.596093
   21.O         1.891220    1.529760   -1.136337
   22.H        -0.150295   -0.595439   -2.867979
 <Sep08-2020> <02:44:24>  >>>> CORORT
 <Sep08-2020> <02:44:24>  >>>> CLSMAT
 <Sep08-2020> <02:44:24>  >>>> ORTHON
 <Sep08-2020> <02:44:24>  >>>> GENPT
 <Sep08-2020> <02:44:24>  Block Length= 128
 <Sep08-2020> <02:44:25>  >>>> PTBAS
 <Sep08-2020> <02:44:28>  combining surface points...
 <Sep08-2020> <02:44:28>  combining surface points...
 <Sep08-2020> <02:44:28>  combining surface points...
 <Sep08-2020> <02:44:28>  >>>> CYCLE
 <Sep08-2020> <02:44:36>              |Error|         MaxErr       Wt(A-DIIS)
 <Sep08-2020> <02:44:36>      1      0.18200812      0.05344932
 <Sep08-2020> <02:44:40>      2      0.35790089      0.06535508    100.0
 <Sep08-2020> <02:44:44>      3      0.10649642      0.01020583    100.0
 <Sep08-2020> <02:44:47>      4      0.11441540      0.01988216     19.1
 <Sep08-2020> <02:44:51>      5      0.17852319      0.02516049    100.0
 <Sep08-2020> <02:44:55>      6      0.07210198      0.00912282      8.2
 <Sep08-2020> <02:44:59>      7      0.03213171      0.00592386      5.0
 <Sep08-2020> <02:45:03>      8      0.01586709      0.00301412      2.0
 <Sep08-2020> <02:45:07>      9      0.00557351      0.00095930      0.0
 <Sep08-2020> <02:45:11>     10      0.00409744      0.00065073      0.0
 <Sep08-2020> <02:45:15>     11      0.00081974      0.00013943      0.0
 <Sep08-2020> <02:45:19>     12      0.00041191      0.00006483      0.0
 <Sep08-2020> <02:45:22>     13      0.00015202      0.00002303      0.0
 <Sep08-2020> <02:45:26>     14      0.00012592      0.00001794      0.0
 <Sep08-2020> <02:45:30>     15      0.00002693      0.00000491      0.0
 <Sep08-2020> <02:45:33>     16      0.00003243      0.00000689      0.0
 <Sep08-2020> <02:45:37>     17      0.00001287      0.00000160      0.0
 <Sep08-2020> <02:45:40>     18      0.00000318      0.00000041      0.0
 <Sep08-2020> <02:45:42>  SCF converged
 <Sep08-2020> <02:45:44>     19      0.00000570      0.00000109      0.0
 <Sep08-2020> <02:45:46>  >>>> TOTEN
 <Sep08-2020> <02:45:50>  >>>> POPAN
 <Sep08-2020> <02:45:51>  >>>> DEBYE
 <Sep08-2020> <02:45:51>  >>>> ENGRAD
 <Sep08-2020> <02:46:04>  current energy                               -6.84447258 Hartree
 <Sep08-2020> <02:46:04>  energy change                      -0.00000147     0.00100000    T
 <Sep08-2020> <02:46:04>  constrained gradient max            0.00120400     0.00100000    F
 <Sep08-2020> <02:46:04>  constrained gradient rms            0.00034221     0.00066667    T
 <Sep08-2020> <02:46:04>  gradient max                        0.00120400
 <Sep08-2020> <02:46:04>  gradient rms                        0.00034221
 <Sep08-2020> <02:46:04>  cart. step max                      0.00290293     0.01000000    T
 <Sep08-2020> <02:46:04>  cart. step rms                      0.00088733     0.00666667    T
  Coordinates in Geometry Cycle 40
    Atom         X           Y           Z   (Angstrom)
    1.W         2.454766    0.047917   -0.148345
    2.W        -2.496040    0.048918    0.085301
    3.W        -0.049645   -2.062564   -0.656445
    4.W        -0.085595    1.820947   -1.409544
    5.W         0.084854    0.087925    2.182485
    6.O        -0.024003    0.253226   -0.129227
    7.O         4.171935    0.051623   -0.230924
    8.O        -4.213539    0.048167    0.160139
    9.O         1.924903   -1.600754   -0.774710
   10.O        -2.027185    1.531879   -0.949681
   11.O         2.034361    0.030219    1.643657
   12.O        -1.909377    0.032213    1.829924
   13.O        -0.131082   -1.512425   -2.500301
   14.O        -0.163347    1.399643   -3.099458
   15.O        -0.060527   -3.772790   -0.857883
   16.O        -0.074530    3.544573   -1.196114
   17.O         0.033802   -1.847822    1.181364
   18.O         0.092229    1.824492    2.340176
   19.O         0.160591   -0.524728    3.801617
   20.O        -2.025618   -1.596207   -0.595539
   21.O         1.890905    1.530712   -1.134942
   22.H        -0.150634   -0.596385   -2.868541
 <Sep08-2020> <02:46:04>  >>>> CORORT
 <Sep08-2020> <02:46:04>  >>>> CLSMAT
 <Sep08-2020> <02:46:04>  >>>> ORTHON
 <Sep08-2020> <02:46:04>  >>>> GENPT
 <Sep08-2020> <02:46:05>  Block Length= 128
 <Sep08-2020> <02:46:05>  >>>> PTBAS
 <Sep08-2020> <02:46:09>  combining surface points...
 <Sep08-2020> <02:46:09>  combining surface points...
 <Sep08-2020> <02:46:09>  combining surface points...
 <Sep08-2020> <02:46:09>  >>>> CYCLE
 <Sep08-2020> <02:46:16>              |Error|         MaxErr       Wt(A-DIIS)
 <Sep08-2020> <02:46:16>      1      0.15613757      0.04088207
 <Sep08-2020> <02:46:20>      2      0.35712557      0.06529995    100.0
 <Sep08-2020> <02:46:24>      3      0.10629193      0.01011900    100.0
 <Sep08-2020> <02:46:27>      4      0.11543274      0.02009536     19.3
 <Sep08-2020> <02:46:31>      5      0.17845855      0.02516012    100.0
 <Sep08-2020> <02:46:35>      6      0.07190694      0.00909004      8.2
 <Sep08-2020> <02:46:39>      7      0.03218580      0.00591002      5.0
 <Sep08-2020> <02:46:43>      8      0.01587240      0.00301841      2.0
 <Sep08-2020> <02:46:47>      9      0.00557902      0.00096219      0.0
 <Sep08-2020> <02:46:51>     10      0.00409627      0.00064693      0.0
 <Sep08-2020> <02:46:55>     11      0.00082170      0.00013952      0.0
 <Sep08-2020> <02:46:59>     12      0.00041311      0.00006472      0.0
 <Sep08-2020> <02:47:02>     13      0.00015275      0.00002289      0.0
 <Sep08-2020> <02:47:06>     14      0.00012833      0.00001827      0.0
 <Sep08-2020> <02:47:10>     15      0.00002648      0.00000484      0.0
 <Sep08-2020> <02:47:13>     16      0.00003334      0.00000708      0.0
 <Sep08-2020> <02:47:17>     17      0.00001257      0.00000157      0.0
 <Sep08-2020> <02:47:20>     18      0.00000335      0.00000043      0.0
 <Sep08-2020> <02:47:22>  SCF converged
 <Sep08-2020> <02:47:24>     19      0.00000561      0.00000109      0.0
 <Sep08-2020> <02:47:26>  >>>> TOTEN
 <Sep08-2020> <02:47:31>  >>>> POPAN
 <Sep08-2020> <02:47:31>  >>>> DEBYE
 <Sep08-2020> <02:47:31>  >>>> ENGRAD
 <Sep08-2020> <02:47:44>  current energy                               -6.84447842 Hartree
 <Sep08-2020> <02:47:44>  energy change                      -0.00000583     0.00100000    T
 <Sep08-2020> <02:47:44>  constrained gradient max            0.00080566     0.00100000    T
 <Sep08-2020> <02:47:44>  constrained gradient rms            0.00024642     0.00066667    T
 <Sep08-2020> <02:47:44>  gradient max                        0.00080566
 <Sep08-2020> <02:47:44>  gradient rms                        0.00024642
 <Sep08-2020> <02:47:44>  cart. step max                      0.00218789     0.01000000    T
 <Sep08-2020> <02:47:44>  cart. step rms                      0.00079702     0.00666667    T
 <Sep08-2020> <02:47:44>  GEOMETRY CONVERGED
 <Sep08-2020> <02:47:44>  Calculating Energy Terms for Final Geometry
  Coordinates in Geometry Cycle 40
    Atom         X           Y           Z   (Angstrom)
    1.W         2.454766    0.047917   -0.148345
    2.W        -2.496040    0.048918    0.085301
    3.W        -0.049645   -2.062564   -0.656445
    4.W        -0.085595    1.820947   -1.409544
    5.W         0.084854    0.087925    2.182485
    6.O        -0.024003    0.253226   -0.129227
    7.O         4.171935    0.051623   -0.230924
    8.O        -4.213539    0.048167    0.160139
    9.O         1.924903   -1.600754   -0.774710
   10.O        -2.027185    1.531879   -0.949681
   11.O         2.034361    0.030219    1.643657
   12.O        -1.909377    0.032213    1.829924
   13.O        -0.131082   -1.512425   -2.500301
   14.O        -0.163347    1.399643   -3.099458
   15.O        -0.060527   -3.772790   -0.857883
   16.O        -0.074530    3.544573   -1.196114
   17.O         0.033802   -1.847822    1.181364
   18.O         0.092229    1.824492    2.340176
   19.O         0.160591   -0.524728    3.801617
   20.O        -2.025618   -1.596207   -0.595539
   21.O         1.890905    1.530712   -1.134942
   22.H        -0.150634   -0.596385   -2.868541
 <Sep08-2020> <02:47:44>  >>>> CORORT
 <Sep08-2020> <02:47:44>  >>>> CLSMAT
 <Sep08-2020> <02:47:44>  >>>> ORTHON
 <Sep08-2020> <02:47:44>  >>>> GENPT
 <Sep08-2020> <02:47:45>  Block Length= 128
 <Sep08-2020> <02:47:45>  >>>> PTBAS
 <Sep08-2020> <02:47:49>  combining surface points...
 <Sep08-2020> <02:47:49>  combining surface points...
 <Sep08-2020> <02:47:49>  combining surface points...
 <Sep08-2020> <02:47:49>  >>>> CYCLE
 <Sep08-2020> <02:47:56>              |Error|         MaxErr       Wt(A-DIIS)
 <Sep08-2020> <02:47:56>      1      0.08856776      0.01445898
 <Sep08-2020> <02:48:00>      2      0.35772219      0.08102126    100.0
 <Sep08-2020> <02:48:04>      3      0.10663298      0.01254042    100.0
 <Sep08-2020> <02:48:08>      4      0.11479347      0.02448218     23.7
 <Sep08-2020> <02:48:12>      5      0.19679619      0.03531420    100.0
 <Sep08-2020> <02:48:15>      6      0.06272194      0.01083465      9.9
 <Sep08-2020> <02:48:19>      7      0.03716711      0.00859726      7.7
 <Sep08-2020> <02:48:23>      8      0.01660734      0.00391680      2.9
 <Sep08-2020> <02:48:27>      9      0.00590905      0.00130631      0.3
 <Sep08-2020> <02:48:31>     10      0.00413324      0.00083378      0.0
 <Sep08-2020> <02:48:35>     11      0.00081264      0.00013848      0.0
 <Sep08-2020> <02:48:39>     12      0.00041704      0.00006664      0.0
 <Sep08-2020> <02:48:42>     13      0.00016096      0.00002979      0.0
 <Sep08-2020> <02:48:46>     14      0.00014392      0.00002603      0.0
 <Sep08-2020> <02:48:50>     15      0.00002520      0.00000518      0.0
 <Sep08-2020> <02:48:53>     16      0.00003839      0.00001051      0.0
 <Sep08-2020> <02:48:57>     17      0.00001096      0.00000163      0.0
 <Sep08-2020> <02:49:00>     18      0.00000564      0.00000122      0.0
 <Sep08-2020> <02:49:04>     19      0.00000712      0.00000175      0.0
 <Sep08-2020> <02:49:07>     20      0.00000040      0.00000010      0.0
 <Sep08-2020> <02:49:09>  SCF converged
 <Sep08-2020> <02:49:11>     21      0.00000046      0.00000011      0.0
 <Sep08-2020> <02:49:14>  >>>> TOTEN
 <Sep08-2020> <02:49:24>  QTAIM: determining topology...
 <Sep08-2020> <02:49:32>  >>>> POPAN
 <Sep08-2020> <02:49:32>  >>>> DEBYE
 <Sep08-2020> <02:49:32>  >>>> AMETS
 <Sep08-2020> <02:49:32>  >>>> POPUL
 <Sep08-2020> <02:49:33>   Bond Energy          -6.84447842 a.u.
 <Sep08-2020> <02:49:33>   Bond Energy        -186.24773407 eV
 <Sep08-2020> <02:49:33>   Bond Energy       -4294.98       kcal/mol
 <Sep08-2020> <02:49:33>  >>>> ENHESS
 <Sep08-2020> <02:49:49>  === NUCLEUS:     1
 <Sep08-2020> <02:54:11>  === NUCLEUS:     2
 <Sep08-2020> <02:58:23>  === NUCLEUS:     3
 <Sep08-2020> <03:02:34>  === NUCLEUS:     4
 <Sep08-2020> <03:06:44>  === NUCLEUS:     5
 <Sep08-2020> <03:10:50>  === NUCLEUS:     6
 <Sep08-2020> <03:14:41>  === NUCLEUS:     7
 <Sep08-2020> <03:18:21>  === NUCLEUS:     8
 <Sep08-2020> <03:22:01>  === NUCLEUS:     9
 <Sep08-2020> <03:25:51>  === NUCLEUS:    10
 <Sep08-2020> <03:29:41>  === NUCLEUS:    11
 <Sep08-2020> <03:33:31>  === NUCLEUS:    12
 <Sep08-2020> <03:37:22>  === NUCLEUS:    13
 <Sep08-2020> <03:41:12>  === NUCLEUS:    14
 <Sep08-2020> <03:45:12>  === NUCLEUS:    15
 <Sep08-2020> <03:49:03>  === NUCLEUS:    16
 <Sep08-2020> <03:52:49>  === NUCLEUS:    17
 <Sep08-2020> <03:56:34>  === NUCLEUS:    18
 <Sep08-2020> <04:00:23>  === NUCLEUS:    19
 <Sep08-2020> <04:04:24>  === NUCLEUS:    20
 <Sep08-2020> <04:08:13>  === NUCLEUS:    21
 <Sep08-2020> <04:12:04>  === NUCLEUS:    22
 <Sep08-2020> <04:15:48>  >>>> CALC_HESS_PMAT
 <Sep08-2020> <04:16:30>  >>>> CALC_HESS_WMAT
 <Sep08-2020> <04:16:38>  NORMAL TERMINATION
 <Sep08-2020> <04:16:38>  END
