 *******************************************************************************
 *                                                                             *
 *  -------------------------------------                                      *
 *   Amsterdam Density Functional  (ADF)         2019                          *
 *  -------------------------------------                                      *
 *                                               r79301 2019-11-09             *
 *                                                                             *
 *                                                                             *
 *                            =====================                            *
 *                            |                   |                            *
 *                            |     D I R A C     |                            *
 *                            |                   |                            *
 *                            =====================                            *
 *                                                                             *
 *                                                                             *
 *   Online information and documentation:  https://www.scm.com/support/       *
 *   E-mail:  support@scm.com   info@scm.com                                   *
 *                                                                             *
 *   Scientific publications using ADF results must be properly referenced     *
 *   See the User Manuals (or the web site) for recommended citations          *
 *   The terms and conditions of the End User License Agreement apply to       *
 *   the use of ADF, https://www.scm.com/license-terms/                        *
 *                                                                             *
 **********************  x86_64_linux_intel / intelmpi  ************************
 
  
 DIRAC 2019  RunTime: Dec11-2023 10:47:37  Nodes: 1  Procs: 1

 Temporary files are created in /scratch/kid_0.806427439 (0x58465342)

1
 HYDROGEN ATOM RELATIVISTIC, Point Nuc, A and c from libtc   
 N J RN H ZN XION ANUC CLIGHT
 5000    1100.00000000197.36710137  1.00000000  0.00000000    1.007825  0.1370360E+03
  PH   PHI     EPS        DEL        DELRVR
  0.30  0.30     2500.00  0.00001000  0.00001000
 IDIRC  NC1  NDEBU NPRIN  IPUN IRCOR IWCOR
   1   300     0     0     0     0     0
   XALPHA      XLATTER      RNUC
  0.70000000  0.00000000  0.00000000 Point Charge
   XN   XL   XJ      XE          XZ      XDELL
  1.0  0.0  0.5      -1.000       1.000     0.00000
 ICORP=  0  NPCL=  0  DEMP=0.00  PEPS=0.000000
 R(1)=  0.1000000E-08 D=  0.1005080E+01 RNUC=  0.0000000E+00
 converged at cycle   32  DENSITY AVERAGING    0.2400
  MAXIMUM ERROR IN R.V(R) IS   0.79874357E-05
 Q,EY,EV,EZ,ESUM,ETOT,RHO  0.100000E+01 -0.266614E+00 -0.619969E+00 -0.910779E+00 -0.203940E+00 -0.415998E+00  0.337036E-17


 DIRAC CALCULATION
1                    HYDROGEN ATOM RELATIVISTIC, Point Nuc, A and c from libtc


 EXCHANGE COEFFICIENT=  0.7000000           TAIL CORRECTION=  0.           NUCLEAR RADIUS=  0.000E+00
0                       ORBITAL    N    L    J     ELECTRONS     EIGENVALUE                DELTA OF EIGENV.

                          1S1/2  1.0  0.0  0.5     1.000       -0.2039397E+00                 0.2720093E-06


                                        NUCLEAR CHARGE=    1.000000
                            INTEGRAL OF CHARGE DENSITY=    1.000000
                           SUM OF THE ORBITAL ENERGIES=     -0.2039
                                          TOTAL ENERGY=     -0.4160
                                        KINETIC ENERGY=      0.4160
                             NUCLEAR ATTRACTION ENERGY=     -0.9108
                             ELECTRON REPULSION ENERGY=      0.2787
                                       EXCHANGE ENERGY=     -0.2000

 *******************************************************************************

                             D I R A C   E X I T
 NORMAL TERMINATION



 =================
 Timing Statistics
 =================
  
 Total Used :                     CPU=        0.07      System=        0.00     Elapsed=        0.09

 Calls  Section                     ( Mean, Percentage )
 ---------------------------------------------------------------------------------------------------
     2  ><      ................      0.00    0.00             0.00    0.00             0.00    0.01
     1  EXIT PROCEDURE .........      0.07  100.00             0.00    0.00             0.09   99.99


 Currently Open Files (EXIT00)
 ====================

 Unit    Access Format  Status   Type       Ident (file)
 -------------------------------------------------------
   3      SEQ    FORM   TRANSP  NORMAL      LOGFILE
                                          ( logfile )
 
Create H   file=TZP-H
XC
  GGA PBE
End
relativistic ZORA
Corepotentials t12.rel
End

 *******************************************************************************
 *                                                                             *
 *  -------------------------------------                                      *
 *   Amsterdam Density Functional  (ADF)         2019                          *
 *  -------------------------------------                                      *
 *                                               r79301 2019-11-09             *
 *                                                                             *
 *                                                                             *
 *                              =================                              *
 *                              |               |                              *
 *                              |     A D F     |                              *
 *                              |               |                              *
 *                              =================                              *
 *                                                                             *
 *                                                                             *
 *   Online information and documentation:  https://www.scm.com/support/       *
 *   E-mail:  support@scm.com   info@scm.com                                   *
 *                                                                             *
 *   Scientific publications using ADF results must be properly referenced     *
 *   See the User Manuals (or the web site) for recommended citations          *
 *   The terms and conditions of the End User License Agreement apply to       *
 *   the use of ADF, https://www.scm.com/license-terms/                        *
 *                                                                             *
 **********************  x86_64_linux_intel / intelmpi  ************************
 
  
 ADF 2019  RunTime: Dec11-2023 10:47:39  Nodes: 1  Procs: 1

 Temporary files are created in /scratch/kid_0.1216038953 (0x58465342)

 Hydrogen (TZP)



 ===========================
 A T T A C H E D   F I L E S
 ===========================
  
 CREATE - Data File:    TZP-H
                        Hydrogen (TZP)
 Core Potentials:
         file : t12.rel



 ===============================
 M O D E L   P A R A M E T E R S
 ===============================
  
 DENSITY FUNCTIONAL POTENTIAL (scf)
    LDA:                               PW92                                    == Not Default ==
    Gradient Corrections:              PBEc PBEx                               == Not Default ==

 SPIN  (restricted / unrestr.)
    Molecule:                          Restricted                               

 OTHER ASPECTS
    Relativistic Corrections:          scalar (ZORA,MAPA)                      == Not Default ==

    Nuclear Charge Density Model:      Point Charge Nuclei                      
    Core Treatment:                    Frozen Orbital(s)                        

    Hyperfine or Zeeman Interaction:   ---                                      



 =====================================
 S Y M M E T R Y ,   E L E C T R O N S
 =====================================
  
 Symmetry: ATOM

 Irreducible Representations, including subspecies
 -------------------------------------------------
 S
 P:x  P:y  P:z
 D:z2  D:x2-y2  D:xy  D:xz  D:yz
 F:z3  F:z  F:xyz  F:z2x  F:z2y  F:x  F:y


 Configuration of Valence Electrons
 ==================================

          Occupation Numbers
          -------------------------------------------------
 S        1
 P        0
 D        0
 F        0
          -------------------------------------------------

 Total:   1

 Net Charge: 0 (Nuclei minus Electrons)

 Preset values for MO occupations will be applied through SCF cycle no. 1000000
 Thereafter, the program will assign electrons to MOs that are spatially
 similar to the occupied MOs in a "reference" cycle ("KeepOrbitals").
 The reference cycle is always the PREVIOUS cycle: it will evolve with
 the SCF procedure.



 ================================
 (Slater-type)  F U N C T I O N S  ***  (Basis and Fit)  ***
 ================================
  

 Atom Type    1  (H)
 ==============

 Valence Basis Sets:   4
 -----------------------
   1 S    0.690000
   1 S    0.920000
   1 S    1.580000
   2 P    1.250000


 BAS: List of all Elementary Cartesian Basis Functions
 =====================================================

 The numbering in the list below (to the right of the function characteristics) is referred
 to in print-outs of MO eigenvectors and Mulliken populations in the BAS representation
 (as contrasted to the SFO representation).

 Notes:
 1. The functions are characterized by a polynomial prefactor (powers of x,y,z and r) and
    an exponential decay factor alpha.
 2. Since the basis sets are specific for an atom TYPE, the individual functions occur on
    all atoms of that type.
 3. The word 'Core' in the left margin signals that it is a Core Function (CF) : not a
    degree of freedom in the valence set, but only used to ensure orthogonalization of
    the other valence basis functions on the frozen Core Orbitals.


 (power of) X  Y  Z  R     Alpha  on Atom
            ==========     =====     ==========

 H                                    1
                                  ---------------------------------------------------------------------------
            0  0  0  0     0.690      1
            0  0  0  0     0.920      2
            0  0  0  0     1.580      3
            1  0  0  0     1.250      4
            0  1  0  0     1.250      5
            0  0  1  0     1.250      6

 Total number of charge fitting functions (nprimf)        50
 Total number of Cartesian basis functions (naos)          6
 Total number of Cartesian core functions  (ncos)          0



 BAS: List of all Elementary Cartesian Basis Functions
 =====================================================

 The numbering in the list below (to the right of the function characteristics) is referred
 to in print-outs of MO eigenvectors and Mulliken populations in the BAS representation
 (as contrasted to the SFO representation).

 Notes:
 1. The functions are characterized by a polynomial prefactor (powers of x,y,z and r) and
    an exponential decay factor alpha.
 2. Since the basis sets are specific for an atom TYPE, the individual functions occur on
    all atoms of that type.
 3. The word 'Core' in the left margin signals that it is a Core Function (CF) : not a
    degree of freedom in the valence set, but only used to ensure orthogonalization of
    the other valence basis functions on the frozen Core Orbitals.


 (power of) X  Y  Z  R     Alpha  on Atom
            ==========     =====     ==========

 H                                    1
                                  ---------------------------------------------------------------------------
            0  0  0  0     0.690      1
            0  0  0  0     0.920      2
            0  0  0  0     1.580      3
            1  0  0  0     1.250      4
            0  1  0  0     1.250      5
            0  0  1  0     1.250      6
1
 ***************************************************************************************************



                                              ***********************
                                              *  T E C H N I C A L  *
                                              ***********************
  



 =============================================================
 P A R A L L E L I Z A T I O N  and  V E C T O R I Z A T I O N
 =============================================================
  
 Nr of parallel processes:                                1
 Maximum vector length in NumInt loops:                 128



 =====================
 S C F   U P D A T E S
 =====================
  
 Max. nr. of cycles:                               300
 Convergence criterion:                              0.0000000100
   secondary criterion:                              0.0000000100

 Mix parameter (when DIIS does not apply):           0.2000000000
 Special mix parameter for the first cycle:          1.0000000000
 Mixed ADIIS+SDIIS will be used                  
    Max number of expansion vectors:                10
    Pure ADIIS when Max([F,P]) is above              0.1000000000
    Pure SDIIS when Max([F,P]) is below              0.0010000000
 Automatic ElectronSmearing (in case of problematic SCF convergence) disabled



 =================
 P R E C I S I O N  ***  (General: NumInt, NeglectFunctionTails, ...)  ***
 =================
  

 NumInt:           Target precision:                12.0000000000
 -------           Initial precision:               10.0000000000
                   Min. precision (optimization):   10.0000000000

 Neglect Functions:          Basis functions:        0.1000000000E-13
 ------------------          Fit functions:          0.1000000000E-13



 ===========================
 L I N E A R   S C A L I N G
 ===========================
  

 Cut-off radii density fit:                        0.1000000000E-97
 Overlap cut-off criterion AO matrix elements:     0.1000000000E-97
 Cut-offs for Coulomb potential and fitted density:0.1000000000E-97
 Cut-off criterion for Coulomb multipole terms:    0.1000000000E-97
 Progressive Convergence parameter:                 0.000000000    
1
 ***************************************************************************************************



                                            ***************************
                                            *  C O M P U T A T I O N  *
                                            ***************************
  

 Number of elements of the density matrix on this node (used, total):        21        21



 ===========================================
 Numerical Integration : Fuzzy Cells (Becke)
 ===========================================
  
 Becke grid quality: VERYGOOD       
  
 Lebedev angular grid order:             min:  13 max:  41
 Nr. of radial points:                   min:  64 max:  64

 Total nr. of points:         64
 Nr. of blocks:                1
 Block length:                64
 Nr. of dummy points:          0


 Test of Precision of the Numerical Integration Grid
 ===================================================

 Integral of the Total Core Density:                   0.00000000000000



 ========================
 Density Fitting (zlmFit)
 ========================
  
 ZlmFit Fit Quality: VERYGOOD       
  
 Max L-expansion:                        min:   0 max:   0
 Nr. of radial interpolation points:     min: 120 max: 120



 =====
 S C F  ***  ScaSCF  ***
 =====
  

 CYCLE    1
 SCF Error: norm([F,P])=      0.000000000000, max([F,P])=      0.000000000000
 orbitals (Q,E):
 ---------------
 S :1...3            ( 1.00    -0.5000)  ( 0.00    -0.0900)  ( 0.00     1.2936)
 P :1...1            ( 0.00     0.1562)

 CYCLE    2
 SCF Error: norm([F,P])=      0.031537872292, max([F,P])=      0.030110494752
 orbitals (Q,E):
 ---------------
 S :1...2            ( 1.00    -0.2218)  ( 0.00     0.1019)
 P :1...1            ( 0.00     0.4189)

 CYCLE    3
  SDIIS (wt  0.000):  0.1996  0.8004
 A-DIIS (wt  1.000):  0.0000  1.0000
  DIIS coefficients:  0.0000  1.0000
 SCF Error: norm([F,P])=      0.008617989401, max([F,P])=      0.008343029399
 orbitals (Q,E):
 ---------------
 S :1...2            ( 1.00    -0.2422)  ( 0.00     0.0889)
 P :1...1            ( 0.00     0.4024)

 CYCLE    4
  SDIIS (wt  0.993):  0.1666  0.8334
 A-DIIS (wt  0.007):  0.0000  1.0000
  DIIS coefficients:  0.1654  0.8346
 SCF Error: norm([F,P])=      0.001732350026, max([F,P])=      0.001718616814
 orbitals (Q,E):
 ---------------
 S :1...2            ( 1.00    -0.2385)  ( 0.00     0.0908)
 P :1...1            ( 0.00     0.4054)

 CYCLE    5
  SDIIS (wt  1.000):  0.0236  0.9764
  DIIS coefficients:  0.0236  0.9764
 SCF Error: norm([F,P])=      0.000043673449, max([F,P])=      0.000039769875
 orbitals (Q,E):
 ---------------
 S :1...2            ( 1.00    -0.2386)  ( 0.00     0.0908)
 P :1...1            ( 0.00     0.4054)

 CYCLE    6
  SDIIS (wt  1.000): -0.0577  1.0577
  DIIS coefficients: -0.0577  1.0577
 SCF Error: norm([F,P])=      0.000002383805, max([F,P])=      0.000002158128
 orbitals (Q,E):
 ---------------
 S :1...2            ( 1.00    -0.2386)  ( 0.00     0.0908)
 P :1...1            ( 0.00     0.4054)

 CYCLE    7
  SDIIS (wt  1.000): -0.0032  1.0032
  DIIS coefficients: -0.0032  1.0032
 SCF Error: norm([F,P])=      0.000000007721, max([F,P])=      0.000000007228
 orbitals (Q,E):
 ---------------
 S :1...2            ( 1.00    -0.2386)  ( 0.00     0.0908)
 P :1...1            ( 0.00     0.4054)

 SCF CONVERGED

 CYCLE    8
1
 ***************************************************************************************************



                                                *******************
                                                *  R E S U L T S  *
                                                *******************
  
 *** Using FIT density in Focky
  SDIIS (wt  1.000):  0.0192  0.9808
  DIIS coefficients:  0.0192  0.9808
 SCF Error: norm([F,P])=      0.000000000151, max([F,P])=      0.000000000141

 Scaled ZORA Orbital Energies, per Irrep and Spin:
 =================================================
                        Occup              E (au)              E (eV)       Diff (eV) with prev. cycle
                        -----      --------------------        ------       --------------------------
 S
               1        1.000     -0.23861775226993E+00        -6.493               7.43E-09
               2        0.000      0.90791701709251E-01         2.471
               3        0.000      0.15217530108908E+01        41.409
 P
               1        0.000      0.40537978060393E+00        11.031


 Partially Occupied:
               1 S                -0.23861775226993E+00
  
 LUMO :        2 S                 0.90791701709251E-01
  


 Orbital Energies, all Irreps
 ========================================

 Irrep        no.  (spin)   Occup              E (au)                E (eV)
 ---------------------------------------------------------------------------
 S             1             1.00       -0.23861775226993E+00        -6.4931
 S             2             0.00        0.90791701709251E-01         2.4706
 P             1             0.00        0.40537978060393E+00        11.0309
 S             3             0.00        0.15217530108908E+01        41.4090


 All Electron Calculation, thus no Orbital Energies of the Core Orbitals are calculated



 =======================================
 M U L L I K E N   P O P U L A T I O N S
 =======================================
  
 The survey below gives for each atom:
 a) the total charge (Z minus electrons)
 b) the net spin polarization (nr of electrons spin-A minus spin-B)
 c) for each spin the atomic electron valence density (integrated) per L-value.

 Atom              Charge    Spin density          S         P         D         F
 ----              ------    ------------       ------    ------    ------    ------
 1 H              -0.0000                       1.0000    0.0000    0.0000    0.0000

 Populations of individual BAS functions
 ----------------------------------------
 1 H            0.2104  0.6788  0.1107  0.0000  0.0000  0.0000

 Gross Charges per Atom (Z minus electrons)
 ==========================================
            -0.0000
 Net Total: -0.00000000



 =======================================================================
 Electrostatic potential at the Nuclei due to electrons and other nuclei
 =======================================================================
  
         Atom                  Potential
         ----                  ---------
     1)   H                   0.94468022
 
 
 ========================
 No memory problems found
 ========================
 
 Maximum number of active allocate calls:         306
 
 *******************************************************************************

                             A D F   E X I T
 NORMAL TERMINATION



 =================
 Timing Statistics
 =================
  
 Total Used :                     CPU=        0.36      System=        0.02     Elapsed=        1.13

 Calls  Section                     ( Mean, Percentage )
 ---------------------------------------------------------------------------------------------------
     3  ><      ................      0.00    0.00             0.00   16.67             0.00    0.40
     1  INIT    ................      0.07   19.78             0.01   50.00             0.72   63.43
     1  GEOMET  ................      0.02    5.49             0.00    0.00             0.04    3.54
     1  INPUTA  ................      0.00    1.10             0.00    0.00             0.00    0.31
     1  MAINSY  ................      0.01    3.30             0.00    0.00             0.05    4.42
     1  SYMFIT  ................      0.00    0.00             0.00    0.00             0.04    3.21
     1  CORORT  ................      0.00    0.00             0.00    0.00             0.00    0.12
     1  SYMORB  ................      0.00    0.00             0.00    0.00             0.00    0.07
     1  CLSMAT  ................      0.00    1.10             0.00   16.67             0.01    0.48
     1  ORTHON  ................      0.00    1.10             0.00    0.00             0.01    0.45
     1  GENPT   ................      0.01    3.30             0.00    0.00             0.01    1.18
     1  PTBAS   ................      0.00    0.00             0.00   16.67             0.00    0.42
     8  FOCKY   ................      0.02   49.45             0.00    0.00             0.02   16.51
     8  FOCKTR  ................      0.00    1.10             0.00    0.00             0.00    0.37
     8  SDIIS   ................      0.00    5.49             0.00    0.00             0.00    2.01
     1  COREPS  ................      0.02    4.40             0.00    0.00             0.01    1.31
     1  POPAN   ................      0.00    1.10             0.00    0.00             0.00    0.42
     1  DEBYE   ................      0.00    0.00             0.00    0.00             0.00    0.17
     1  EXIT PROCEDURE .........      0.01    3.30             0.00    0.00             0.01    1.18


 Currently Open Files (EXIT00)
 ====================

 Unit    Access Format  Status   Type       Ident (file)
 -------------------------------------------------------
   3      SEQ    FORM   TRANSP  NORMAL      LOGFILE
                                          ( logfile )

 ***************************************************************************************************
 (LOGFILE)
 <Dec11-2023> <10:47:37>  DIRAC 2019  RunTime: Dec11-2023 10:47:37  Nodes: 1  Procs: 1
 <Dec11-2023> <10:47:37>  NORMAL TERMINATION
 <Dec11-2023> <10:47:37>  END
 <Dec11-2023> <10:47:39>  ADF 2019  RunTime: Dec11-2023 10:47:39  Nodes: 1  Procs: 1
 <Dec11-2023> <10:47:39>  Hydrogen (TZP)
 <Dec11-2023> <10:47:39>  RunType   : CREATE
 <Dec11-2023> <10:47:39>  Net Charge: 0 (Nuclei minus Electrons)
 <Dec11-2023> <10:47:39>  Symmetry  : ATOM
  Coordinates
    Atom         X           Y           Z   (Angstrom)
    1.H         0.000000    0.000000    0.000000
 <Dec11-2023> <10:47:39>  >>>> CORORT
 <Dec11-2023> <10:47:39>  >>>> CLSMAT
 <Dec11-2023> <10:47:39>  >>>> ORTHON
 <Dec11-2023> <10:47:39>  >>>> GENPT
 <Dec11-2023> <10:47:39>  Block Length=  64
 <Dec11-2023> <10:47:39>  >>>> PTBAS
 <Dec11-2023> <10:47:39>  >>>> CYCLE
 <Dec11-2023> <10:47:40>              |Error|         MaxErr       Wt(A-DIIS)
 <Dec11-2023> <10:47:40>      1      0.00000000      0.00000000
 <Dec11-2023> <10:47:40>      2      0.03153787      0.03011049
 <Dec11-2023> <10:47:40>      3      0.00861799      0.00834303    100.0
 <Dec11-2023> <10:47:40>      4      0.00173235      0.00171862      0.7
 <Dec11-2023> <10:47:40>      5      0.00004367      0.00003977      0.0
 <Dec11-2023> <10:47:40>      6      0.00000238      0.00000216      0.0
 <Dec11-2023> <10:47:40>      7      0.00000001      0.00000001      0.0
 <Dec11-2023> <10:47:40>  SCF converged
 <Dec11-2023> <10:47:40>      8      0.00000000      0.00000000      0.0
 <Dec11-2023> <10:47:40>  >>>> POPAN
 <Dec11-2023> <10:47:40>  >>>> DEBYE
 <Dec11-2023> <10:47:40>  NORMAL TERMINATION
 <Dec11-2023> <10:47:40>  END

 *******************************************************************************
 *                                                                             *
 *  -------------------------------------                                      *
 *   Amsterdam Density Functional  (ADF)         2019                          *
 *  -------------------------------------                                      *
 *                                               r79301 2019-11-09             *
 *                                                                             *
 *                                                                             *
 *                            =====================                            *
 *                            |                   |                            *
 *                            |     D I R A C     |                            *
 *                            |                   |                            *
 *                            =====================                            *
 *                                                                             *
 *                                                                             *
 *   Online information and documentation:  https://www.scm.com/support/       *
 *   E-mail:  support@scm.com   info@scm.com                                   *
 *                                                                             *
 *   Scientific publications using ADF results must be properly referenced     *
 *   See the User Manuals (or the web site) for recommended citations          *
 *   The terms and conditions of the End User License Agreement apply to       *
 *   the use of ADF, https://www.scm.com/license-terms/                        *
 *                                                                             *
 **********************  x86_64_linux_intel / intelmpi  ************************
 
  
 DIRAC 2019  RunTime: Dec11-2023 10:47:40  Nodes: 1  Procs: 1

 Temporary files are created in /scratch/kid_0.1098114631 (0x58465342)

1
 OXYGEN ATOM 1s CORE RELATIVISTIC, Point Nuc, A and c from li
 N J RN H ZN XION ANUC CLIGHT
 5000    4100.00000000197.36710137  8.00000000  0.00000000   15.994914  0.1370360E+03
  PH   PHI     EPS        DEL        DELRVR
  0.30  0.30     2500.00  0.00001000  0.00001000
 IDIRC  NC1  NDEBU NPRIN  IPUN IRCOR IWCOR
   1   300     0     0     0     0     1
   XALPHA      XLATTER      RNUC
  0.70000000  0.00000000  0.00000000 Point Charge
   XN   XL   XJ      XE          XZ      XDELL
  1.0  0.0  0.5      -5.000       2.000     0.00000
  2.0  0.0  0.5      -1.000       2.000     0.00000
  2.0  1.0  0.5      -1.000       2.000     0.00000
  2.0  1.0  1.5      -1.000       2.000     0.00000
 ICORP=  0  NPCL=  0  DEMP=0.00  PEPS=0.000000
 R(1)=  0.1000000E-08 D=  0.1005080E+01 RNUC=  0.0000000E+00
 converged at cycle   28  DENSITY AVERAGING    0.2400
  MAXIMUM ERROR IN R.V(R) IS   0.81125670E-05
 Q,EY,EV,EZ,ESUM,ETOT,RHO  0.800000E+01 -0.101247E+02 -0.114961E+03 -0.177573E+03 -0.405053E+02 -0.743427E+02  0.414766E-14


 DIRAC CALCULATION
1                    OXYGEN ATOM 1s CORE RELATIVISTIC, Point Nuc, A and c from libtc


 EXCHANGE COEFFICIENT=  0.7000000           TAIL CORRECTION=  0.           NUCLEAR RADIUS=  0.000E+00
0                       ORBITAL    N    L    J     ELECTRONS     EIGENVALUE                DELTA OF EIGENV.

                          1S1/2  1.0  0.0  0.5     2.000       -0.1880014E+02                 0.7264358E-06
                          2S1/2  2.0  0.0  0.5     2.000       -0.8412236E+00                 0.5932752E-05
                          2P1/2  2.0  1.0  0.5     2.000       -0.3063203E+00                 0.5998471E-05
                          2P3/2  2.0  1.0  1.5     2.000       -0.3049609E+00                 0.5986971E-05


                                        NUCLEAR CHARGE=    8.000000
                            INTEGRAL OF CHARGE DENSITY=    8.000000
                           SUM OF THE ORBITAL ENERGIES=    -40.5053
                                          TOTAL ENERGY=    -74.3427
                                        KINETIC ENERGY=     74.4552
                             NUCLEAR ATTRACTION ENERGY=   -177.5730
                             ELECTRON REPULSION ENERGY=     36.3686
                                       EXCHANGE ENERGY=     -7.5935

 *******************************************************************************

                             D I R A C   E X I T
 NORMAL TERMINATION



 =================
 Timing Statistics
 =================
  
 Total Used :                     CPU=        0.12      System=        0.01     Elapsed=        0.14

 Calls  Section                     ( Mean, Percentage )
 ---------------------------------------------------------------------------------------------------
     2  ><      ................      0.00    0.00             0.00    0.00             0.00    0.01
     1  EXIT PROCEDURE .........      0.12  100.00             0.01  100.00             0.14   99.99


 Currently Open Files (EXIT00)
 ====================

 Unit    Access Format  Status   Type       Ident (file)
 -------------------------------------------------------
   3      SEQ    FORM   TRANSP  NORMAL      LOGFILE
                                          ( logfile )
 
Create O   file=TZP-O.1s
XC
  GGA PBE
End
relativistic ZORA
Corepotentials t12.rel
End

 *******************************************************************************
 *                                                                             *
 *  -------------------------------------                                      *
 *   Amsterdam Density Functional  (ADF)         2019                          *
 *  -------------------------------------                                      *
 *                                               r79301 2019-11-09             *
 *                                                                             *
 *                                                                             *
 *                              =================                              *
 *                              |               |                              *
 *                              |     A D F     |                              *
 *                              |               |                              *
 *                              =================                              *
 *                                                                             *
 *                                                                             *
 *   Online information and documentation:  https://www.scm.com/support/       *
 *   E-mail:  support@scm.com   info@scm.com                                   *
 *                                                                             *
 *   Scientific publications using ADF results must be properly referenced     *
 *   See the User Manuals (or the web site) for recommended citations          *
 *   The terms and conditions of the End User License Agreement apply to       *
 *   the use of ADF, https://www.scm.com/license-terms/                        *
 *                                                                             *
 **********************  x86_64_linux_intel / intelmpi  ************************
 
  
 ADF 2019  RunTime: Dec11-2023 10:47:40  Nodes: 1  Procs: 1

 Temporary files are created in /scratch/kid_0.529405068 (0x58465342)

 Oxygen (TZP, 1s frozen)



 ===========================
 A T T A C H E D   F I L E S
 ===========================
  
 CREATE - Data File:    TZP-O.1s
                        Oxygen (TZP, 1s frozen)
 Core Potentials:
         file : t12.rel



 ===============================
 M O D E L   P A R A M E T E R S
 ===============================
  
 DENSITY FUNCTIONAL POTENTIAL (scf)
    LDA:                               PW92                                    == Not Default ==
    Gradient Corrections:              PBEc PBEx                               == Not Default ==

 SPIN  (restricted / unrestr.)
    Molecule:                          Restricted                               

 OTHER ASPECTS
    Relativistic Corrections:          scalar (ZORA,MAPA)                      == Not Default ==

    Nuclear Charge Density Model:      Point Charge Nuclei                      
    Core Treatment:                    Frozen Orbital(s)                        

    Hyperfine or Zeeman Interaction:   ---                                      



 =====================================
 S Y M M E T R Y ,   E L E C T R O N S
 =====================================
  
 Symmetry: ATOM

 Irreducible Representations, including subspecies
 -------------------------------------------------
 S
 P:x  P:y  P:z
 D:z2  D:x2-y2  D:xy  D:xz  D:yz
 F:z3  F:z  F:xyz  F:z2x  F:z2y  F:x  F:y


 Configuration of Valence Electrons
 ==================================

          Occupation Numbers
          -------------------------------------------------
 S        2
 P        4
 D        0
 F        0
          -------------------------------------------------

 Total:   6

 Net Charge: 0 (Nuclei minus Electrons)

 Preset values for MO occupations will be applied through SCF cycle no. 1000000
 Thereafter, the program will assign electrons to MOs that are spatially
 similar to the occupied MOs in a "reference" cycle ("KeepOrbitals").
 The reference cycle is always the PREVIOUS cycle: it will evolve with
 the SCF procedure.



 ================================
 (Slater-type)  F U N C T I O N S  ***  (Basis and Fit)  ***
 ================================
  

 Atom Type    1  (O)
 ==============

 Valence Basis Sets:   8
 -----------------------
   1 S    7.360000
   2 S    1.720000
   2 S    2.880000
   2 S    7.580000
   2 P    1.120000
   2 P    2.080000
   2 P    4.080000
   3 D    2.000000

 Frozen Core Shells
 ------------------
    S:  1


 BAS: List of all Elementary Cartesian Basis Functions
 =====================================================

 The numbering in the list below (to the right of the function characteristics) is referred
 to in print-outs of MO eigenvectors and Mulliken populations in the BAS representation
 (as contrasted to the SFO representation).

 Notes:
 1. The functions are characterized by a polynomial prefactor (powers of x,y,z and r) and
    an exponential decay factor alpha.
 2. Since the basis sets are specific for an atom TYPE, the individual functions occur on
    all atoms of that type.
 3. The word 'Core' in the left margin signals that it is a Core Function (CF) : not a
    degree of freedom in the valence set, but only used to ensure orthogonalization of
    the other valence basis functions on the frozen Core Orbitals.


 (power of) X  Y  Z  R     Alpha  on Atom
            ==========     =====     ==========

 O                                    1
                                  ---------------------------------------------------------------------------
    Core    0  0  0  0     7.360      1
            0  0  0  1     1.720      2
            0  0  0  1     2.880      3
            0  0  0  1     7.580      4
            1  0  0  0     1.120      5
            0  1  0  0     1.120      6
            0  0  1  0     1.120      7
            1  0  0  0     2.080      8
            0  1  0  0     2.080      9
            0  0  1  0     2.080     10
            1  0  0  0     4.080     11
            0  1  0  0     4.080     12
            0  0  1  0     4.080     13
            2  0  0  0     2.000     14
            1  1  0  0     2.000     15
            1  0  1  0     2.000     16
            0  2  0  0     2.000     17
            0  1  1  0     2.000     18
            0  0  2  0     2.000     19

 Total number of charge fitting functions (nprimf)        82
 Total number of Cartesian basis functions (naos)         19
 Total number of Cartesian core functions  (ncos)          1



 BAS: List of all Elementary Cartesian Basis Functions
 =====================================================

 The numbering in the list below (to the right of the function characteristics) is referred
 to in print-outs of MO eigenvectors and Mulliken populations in the BAS representation
 (as contrasted to the SFO representation).

 Notes:
 1. The functions are characterized by a polynomial prefactor (powers of x,y,z and r) and
    an exponential decay factor alpha.
 2. Since the basis sets are specific for an atom TYPE, the individual functions occur on
    all atoms of that type.
 3. The word 'Core' in the left margin signals that it is a Core Function (CF) : not a
    degree of freedom in the valence set, but only used to ensure orthogonalization of
    the other valence basis functions on the frozen Core Orbitals.


 (power of) X  Y  Z  R     Alpha  on Atom
            ==========     =====     ==========

 O                                    1
                                  ---------------------------------------------------------------------------
    Core    0  0  0  0     7.360      1
            0  0  0  1     1.720      2
            0  0  0  1     2.880      3
            0  0  0  1     7.580      4
            1  0  0  0     1.120      5
            0  1  0  0     1.120      6
            0  0  1  0     1.120      7
            1  0  0  0     2.080      8
            0  1  0  0     2.080      9
            0  0  1  0     2.080     10
            1  0  0  0     4.080     11
            0  1  0  0     4.080     12
            0  0  1  0     4.080     13
            2  0  0  0     2.000     14
            1  1  0  0     2.000     15
            1  0  1  0     2.000     16
            0  2  0  0     2.000     17
            0  1  1  0     2.000     18
            0  0  2  0     2.000     19
1
 ***************************************************************************************************



                                              ***********************
                                              *  T E C H N I C A L  *
                                              ***********************
  



 =============================================================
 P A R A L L E L I Z A T I O N  and  V E C T O R I Z A T I O N
 =============================================================
  
 Nr of parallel processes:                                1
 Maximum vector length in NumInt loops:                 128



 =====================
 S C F   U P D A T E S
 =====================
  
 Max. nr. of cycles:                               300
 Convergence criterion:                              0.0000000100
   secondary criterion:                              0.0000000100

 Mix parameter (when DIIS does not apply):           0.2000000000
 Special mix parameter for the first cycle:          1.0000000000
 Mixed ADIIS+SDIIS will be used                  
    Max number of expansion vectors:                10
    Pure ADIIS when Max([F,P]) is above              0.1000000000
    Pure SDIIS when Max([F,P]) is below              0.0010000000
 Automatic ElectronSmearing (in case of problematic SCF convergence) disabled



 =================
 P R E C I S I O N  ***  (General: NumInt, NeglectFunctionTails, ...)  ***
 =================
  

 NumInt:           Target precision:                12.0000000000
 -------           Initial precision:               10.0000000000
                   Min. precision (optimization):   10.0000000000

 Neglect Functions:          Basis functions:        0.1000000000E-13
 ------------------          Fit functions:          0.1000000000E-13



 ===========================
 L I N E A R   S C A L I N G
 ===========================
  

 Cut-off radii density fit:                        0.1000000000E-97
 Overlap cut-off criterion AO matrix elements:     0.1000000000E-97
 Cut-offs for Coulomb potential and fitted density:0.1000000000E-97
 Cut-off criterion for Coulomb multipole terms:    0.1000000000E-97
 Progressive Convergence parameter:                 0.000000000    
1
 ***************************************************************************************************



                                            ***************************
                                            *  C O M P U T A T I O N  *
                                            ***************************
  

 Number of elements of the density matrix on this node (used, total):       190       190



 ===========================================
 Numerical Integration : Fuzzy Cells (Becke)
 ===========================================
  
 Becke grid quality: VERYGOOD       
  
 Lebedev angular grid order:             min:  13 max:  41
 Nr. of radial points:                   min:  68 max:  68

 Total nr. of points:         68
 Nr. of blocks:                1
 Block length:                68
 Nr. of dummy points:          0


 Test of Precision of the Numerical Integration Grid
 ===================================================

 Integral of the Total Core Density:                   1.99999999865610
 Relative Error:                                      -6.720E-10



 ========================
 Density Fitting (zlmFit)
 ========================
  
 ZlmFit Fit Quality: VERYGOOD       
  
 Max L-expansion:                        min:   0 max:   0
 Nr. of radial interpolation points:     min: 140 max: 140



 =====
 S C F  ***  ScaSCF  ***
 =====
  

 CYCLE    1
 SCF Error: norm([F,P])=      0.000000000000, max([F,P])=      0.000000000000
 orbitals (Q,E):
 ---------------
 S :1...3            ( 2.00    -5.3654)  ( 0.00    -2.2073)  ( 0.00    23.6692)
 P :1...3            ( 4.00    -5.0045)  ( 0.00    -2.0150)  ( 0.00    -0.3846)
 D :1...1            ( 0.00    -2.0410)

 CYCLE    2
 SCF Error: norm([F,P])=      4.562993374873, max([F,P])=      2.528971113813
 orbitals (Q,E):
 ---------------
 S :1...2            ( 2.00    -0.1548)  ( 0.00     1.6948)
 P :1...2            ( 4.00     0.1773)  ( 0.00     0.9552)
 D :1...1            ( 0.00     1.4649)

 CYCLE    3
  SDIIS (wt  0.000):  0.3378  0.6622
 A-DIIS (wt  1.000):  0.4814  0.5186
  DIIS coefficients:  0.4814  0.5186
 SCF Error: norm([F,P])=      2.723155250500, max([F,P])=      1.798667049295
 orbitals (Q,E):
 ---------------
 S :1...2            ( 2.00    -1.1093)  ( 0.00     0.7549)
 P :1...2            ( 4.00    -0.5518)  ( 0.00     0.2590)
 D :1...1            ( 0.00     0.8910)

 CYCLE    4
  SDIIS (wt  0.000):  0.0919  0.9081
 A-DIIS (wt  1.000):  0.0000  1.0000
  DIIS coefficients:  0.0000  1.0000
 SCF Error: norm([F,P])=      0.289027138405, max([F,P])=      0.130648623511
 orbitals (Q,E):
 ---------------
 S :1...2            ( 2.00    -0.7707)  ( 0.00     0.9912)
 P :1...2            ( 4.00    -0.2284)  ( 0.00     0.4046)
 D :1...1            ( 0.00     1.1288)

 CYCLE    5
  SDIIS (wt  0.000):  0.0260  0.6740  0.3001
 A-DIIS (wt  1.000):  0.0000  0.5764  0.4236
  DIIS coefficients:  0.0000  0.5764  0.4236
 SCF Error: norm([F,P])=      0.416615089426, max([F,P])=      0.232643669786
 orbitals (Q,E):
 ---------------
 S :1...2            ( 2.00    -0.8764)  ( 0.00     0.9107)
 P :1...2            ( 4.00    -0.3280)  ( 0.00     0.3557)
 D :1...1            ( 0.00     1.0703)

 CYCLE    6
  SDIIS (wt  0.942):  0.0005  0.0237 -0.0203  0.9960
 A-DIIS (wt  0.058):  0.0000  0.0000  0.0000  1.0000
  DIIS coefficients:  0.0005  0.0224 -0.0191  0.9962
 SCF Error: norm([F,P])=      0.013723272809, max([F,P])=      0.006719036732
 orbitals (Q,E):
 ---------------
 S :1...2            ( 2.00    -0.8830)  ( 0.00     0.9058)
 P :1...2            ( 4.00    -0.3343)  ( 0.00     0.3521)
 D :1...1            ( 0.00     1.0657)

 CYCLE    7
  SDIIS (wt  1.000): -0.0000  0.0016  0.0023  0.0424  0.9537
  DIIS coefficients: -0.0000  0.0016  0.0023  0.0424  0.9537
 SCF Error: norm([F,P])=      0.001103645928, max([F,P])=      0.000634039171
 orbitals (Q,E):
 ---------------
 S :1...2            ( 2.00    -0.8827)  ( 0.00     0.9060)
 P :1...2            ( 4.00    -0.3340)  ( 0.00     0.3523)
 D :1...1            ( 0.00     1.0659)

 CYCLE    8
  SDIIS (wt  1.000): -0.0000 -0.0001  0.0000 -0.0032  0.0268  0.9765
  DIIS coefficients: -0.0000 -0.0001  0.0000 -0.0032  0.0268  0.9765
 SCF Error: norm([F,P])=      0.000035919805, max([F,P])=      0.000020263970
 orbitals (Q,E):
 ---------------
 S :1...2            ( 2.00    -0.8827)  ( 0.00     0.9060)
 P :1...2            ( 4.00    -0.3340)  ( 0.00     0.3522)
 D :1...1            ( 0.00     1.0659)

 CYCLE    9
  SDIIS (wt  1.000): -0.0000  0.0008  0.0188  0.9804
  DIIS coefficients: -0.0000  0.0008  0.0188  0.9804
 SCF Error: norm([F,P])=      0.000000326384, max([F,P])=      0.000000183924
 orbitals (Q,E):
 ---------------
 S :1...2            ( 2.00    -0.8827)  ( 0.00     0.9060)
 P :1...2            ( 4.00    -0.3340)  ( 0.00     0.3522)
 D :1...1            ( 0.00     1.0659)

 CYCLE   10
  SDIIS (wt  1.000):  0.0000  0.0003  0.9996
  DIIS coefficients:  0.0000  0.0003  0.9996
 SCF Error: norm([F,P])=      0.000000000559, max([F,P])=      0.000000000306
 orbitals (Q,E):
 ---------------
 S :1...2            ( 2.00    -0.8827)  ( 0.00     0.9060)
 P :1...2            ( 4.00    -0.3340)  ( 0.00     0.3522)
 D :1...1            ( 0.00     1.0659)

 SCF CONVERGED

 CYCLE   11
1
 ***************************************************************************************************



                                                *******************
                                                *  R E S U L T S  *
                                                *******************
  
 *** Using FIT density in Focky
  SDIIS (wt  1.000): -0.0000  0.0143  0.9857
  DIIS coefficients: -0.0000  0.0143  0.9857
 SCF Error: norm([F,P])=      0.000000000010, max([F,P])=      0.000000000006

 Scaled ZORA Orbital Energies, per Irrep and Spin:
 =================================================
                        Occup              E (au)              E (eV)       Diff (eV) with prev. cycle
                        -----      --------------------        ------       --------------------------
 S
               1        2.000     -0.88272313143209E+00       -24.020              -9.28E-11
               2        0.000      0.90601345014671E+00        24.654
               3        0.000      0.29578810816937E+02       804.880
 P
               1        4.000     -0.33400585272070E+00        -9.089              -8.94E-11
               2        0.000      0.35224911365993E+00         9.585
               3        0.000      0.38342927625315E+01       104.336
 D
               1        0.000      0.10658965783141E+01        29.005


 Partially Occupied:
               1 P                -0.33400585272070E+00
  
 HOMO :        1 S                -0.88272313143209E+00
 LUMO :        2 P                 0.35224911365993E+00
  


 Orbital Energies, all Irreps
 ========================================

 Irrep        no.  (spin)   Occup              E (au)                E (eV)
 ---------------------------------------------------------------------------
 S             1             2.00       -0.88272313143209E+00       -24.0201
 P             1             4.00       -0.33400585272070E+00        -9.0888
 P             2             0.00        0.35224911365993E+00         9.5852
 S             2             0.00        0.90601345014671E+00        24.6539
 D             1             0.00        0.10658965783141E+01        29.0045
 P             3             0.00        0.38342927625315E+01       104.3364
 S             3             0.00        0.29578810816937E+02       804.8804


 Scaled ZORA Orbital Energies of the Core Orbitals:
 ==================================================

 (Note that the atoms are grouped by atomtype, see the labels, and may hence NOT be in input order)

 AtomType  Orbital  Atom                   E (au)                        E (eV)
 --------  -------  ----           --------------------        ----------------
 O           1S        1          -0.18925919758629E+02                -515.000



 =======================================
 M U L L I K E N   P O P U L A T I O N S
 =======================================
  
 The survey below gives for each atom:
 a) the total charge (Z minus electrons)
 b) the net spin polarization (nr of electrons spin-A minus spin-B)
 c) for each spin the atomic electron valence density (integrated) per L-value.

 Atom              Charge    Spin density          S         P         D         F
 ----              ------    ------------       ------    ------    ------    ------
 1 O              -0.0000                       2.0000    4.0000    0.0000    0.0000

 Populations of individual BAS functions
 ----------------------------------------
 1 O            0.0005  0.9226  1.0966 -0.0196  0.3346  0.3346  0.3346  0.7512  0.7512  0.7512
                0.2476  0.2476  0.2476  0.0000  0.0000  0.0000  0.0000  0.0000  0.0000

 Gross Charges per Atom (Z minus electrons)
 ==========================================
            -0.0000
 Net Total: -0.00000000



 =======================================================================
 Electrostatic potential at the Nuclei due to electrons and other nuclei
 =======================================================================
  
         Atom                  Potential
         ----                  ---------
     1)   O                  22.20265662
 
 
 ========================
 No memory problems found
 ========================
 
 Maximum number of active allocate calls:         389
 
 *******************************************************************************

                             A D F   E X I T
 NORMAL TERMINATION



 =================
 Timing Statistics
 =================
  
 Total Used :                     CPU=        0.46      System=        0.02     Elapsed=        0.52

 Calls  Section                     ( Mean, Percentage )
 ---------------------------------------------------------------------------------------------------
     3  ><      ................      0.00    0.86             0.00    0.00             0.00    0.89
     1  INIT    ................      0.07   14.66             0.01   33.33             0.08   15.61
     1  GEOMET  ................      0.01    2.59             0.01   33.33             0.02    4.75
     1  INPUTA  ................      0.00    0.86             0.00   16.67             0.00    0.72
     1  MAINSY  ................      0.01    2.59             0.00    0.00             0.01    2.79
     1  SYMFIT  ................      0.00    0.00             0.00    0.00             0.00    0.33
     1  CORORT  ................      0.00    0.86             0.00    0.00             0.00    0.30
     1  SYMORB  ................      0.00    0.00             0.00    0.00             0.00    0.18
     1  CLSMAT  ................      0.00    0.86             0.00    0.00             0.01    1.15
     1  ORTHON  ................      0.00    0.86             0.00    0.00             0.01    1.09
     1  GENPT   ................      0.01    2.59             0.00   16.67             0.02    3.20
     1  PTBAS   ................      0.01    1.72             0.00    0.00             0.01    1.02
    11  FOCKY   ................      0.02   58.62             0.00    0.00             0.02   52.63
    11  FOCKTR  ................      0.00    2.59             0.00    0.00             0.00    1.28
    11  SDIIS   ................      0.00    2.59             0.00    0.00             0.00    6.26
     1  COREPS  ................      0.02    4.31             0.00    0.00             0.02    3.64
     1  POPAN   ................      0.00    0.86             0.00    0.00             0.01    1.10
     1  DEBYE   ................      0.00    0.00             0.00    0.00             0.00    0.38
     1  EXIT PROCEDURE .........      0.01    2.59             0.00    0.00             0.01    2.68


 Currently Open Files (EXIT00)
 ====================

 Unit    Access Format  Status   Type       Ident (file)
 -------------------------------------------------------
   3      SEQ    FORM   TRANSP  NORMAL      LOGFILE
                                          ( logfile )

 ***************************************************************************************************
 (LOGFILE)
 <Dec11-2023> <10:47:37>  DIRAC 2019  RunTime: Dec11-2023 10:47:37  Nodes: 1  Procs: 1
 <Dec11-2023> <10:47:37>  NORMAL TERMINATION
 <Dec11-2023> <10:47:37>  END
 <Dec11-2023> <10:47:39>  ADF 2019  RunTime: Dec11-2023 10:47:39  Nodes: 1  Procs: 1
 <Dec11-2023> <10:47:39>  Hydrogen (TZP)
 <Dec11-2023> <10:47:39>  RunType   : CREATE
 <Dec11-2023> <10:47:39>  Net Charge: 0 (Nuclei minus Electrons)
 <Dec11-2023> <10:47:39>  Symmetry  : ATOM
  Coordinates
    Atom         X           Y           Z   (Angstrom)
    1.H         0.000000    0.000000    0.000000
 <Dec11-2023> <10:47:39>  >>>> CORORT
 <Dec11-2023> <10:47:39>  >>>> CLSMAT
 <Dec11-2023> <10:47:39>  >>>> ORTHON
 <Dec11-2023> <10:47:39>  >>>> GENPT
 <Dec11-2023> <10:47:39>  Block Length=  64
 <Dec11-2023> <10:47:39>  >>>> PTBAS
 <Dec11-2023> <10:47:39>  >>>> CYCLE
 <Dec11-2023> <10:47:40>              |Error|         MaxErr       Wt(A-DIIS)
 <Dec11-2023> <10:47:40>      1      0.00000000      0.00000000
 <Dec11-2023> <10:47:40>      2      0.03153787      0.03011049
 <Dec11-2023> <10:47:40>      3      0.00861799      0.00834303    100.0
 <Dec11-2023> <10:47:40>      4      0.00173235      0.00171862      0.7
 <Dec11-2023> <10:47:40>      5      0.00004367      0.00003977      0.0
 <Dec11-2023> <10:47:40>      6      0.00000238      0.00000216      0.0
 <Dec11-2023> <10:47:40>      7      0.00000001      0.00000001      0.0
 <Dec11-2023> <10:47:40>  SCF converged
 <Dec11-2023> <10:47:40>      8      0.00000000      0.00000000      0.0
 <Dec11-2023> <10:47:40>  >>>> POPAN
 <Dec11-2023> <10:47:40>  >>>> DEBYE
 <Dec11-2023> <10:47:40>  NORMAL TERMINATION
 <Dec11-2023> <10:47:40>  END
 <Dec11-2023> <10:47:40>  DIRAC 2019  RunTime: Dec11-2023 10:47:40  Nodes: 1  Procs: 1
 <Dec11-2023> <10:47:40>  NORMAL TERMINATION
 <Dec11-2023> <10:47:40>  END
 <Dec11-2023> <10:47:40>  ADF 2019  RunTime: Dec11-2023 10:47:40  Nodes: 1  Procs: 1
 <Dec11-2023> <10:47:40>  Oxygen (TZP, 1s frozen)
 <Dec11-2023> <10:47:40>  RunType   : CREATE
 <Dec11-2023> <10:47:40>  Net Charge: 0 (Nuclei minus Electrons)
 <Dec11-2023> <10:47:40>  Symmetry  : ATOM
  Coordinates
    Atom         X           Y           Z   (Angstrom)
    1.O         0.000000    0.000000    0.000000
 <Dec11-2023> <10:47:40>  >>>> CORORT
 <Dec11-2023> <10:47:40>  >>>> CLSMAT
 <Dec11-2023> <10:47:40>  >>>> ORTHON
 <Dec11-2023> <10:47:40>  >>>> GENPT
 <Dec11-2023> <10:47:40>  Block Length=  68
 <Dec11-2023> <10:47:40>  >>>> PTBAS
 <Dec11-2023> <10:47:40>  >>>> CYCLE
 <Dec11-2023> <10:47:40>              |Error|         MaxErr       Wt(A-DIIS)
 <Dec11-2023> <10:47:40>      1      0.00000000      0.00000000
 <Dec11-2023> <10:47:40>      2      4.56299337      2.52897111
 <Dec11-2023> <10:47:40>      3      2.72315525      1.79866705    100.0
 <Dec11-2023> <10:47:40>      4      0.28902714      0.13064862    100.0
 <Dec11-2023> <10:47:40>      5      0.41661509      0.23264367    100.0
 <Dec11-2023> <10:47:40>      6      0.01372327      0.00671904      5.8
 <Dec11-2023> <10:47:40>      7      0.00110365      0.00063404      0.0
 <Dec11-2023> <10:47:40>      8      0.00003592      0.00002026      0.0
 <Dec11-2023> <10:47:40>      9      0.00000033      0.00000018      0.0
 <Dec11-2023> <10:47:40>     10      0.00000000      0.00000000      0.0
 <Dec11-2023> <10:47:40>  SCF converged
 <Dec11-2023> <10:47:40>     11      0.00000000      0.00000000      0.0
 <Dec11-2023> <10:47:40>  >>>> POPAN
 <Dec11-2023> <10:47:40>  >>>> DEBYE
 <Dec11-2023> <10:47:40>  NORMAL TERMINATION
 <Dec11-2023> <10:47:40>  END

 *******************************************************************************
 *                                                                             *
 *  -------------------------------------                                      *
 *   Amsterdam Density Functional  (ADF)         2019                          *
 *  -------------------------------------                                      *
 *                                               r79301 2019-11-09             *
 *                                                                             *
 *                                                                             *
 *                            =====================                            *
 *                            |                   |                            *
 *                            |     D I R A C     |                            *
 *                            |                   |                            *
 *                            =====================                            *
 *                                                                             *
 *                                                                             *
 *   Online information and documentation:  https://www.scm.com/support/       *
 *   E-mail:  support@scm.com   info@scm.com                                   *
 *                                                                             *
 *   Scientific publications using ADF results must be properly referenced     *
 *   See the User Manuals (or the web site) for recommended citations          *
 *   The terms and conditions of the End User License Agreement apply to       *
 *   the use of ADF, https://www.scm.com/license-terms/                        *
 *                                                                             *
 **********************  x86_64_linux_intel / intelmpi  ************************
 
  
 DIRAC 2019  RunTime: Dec11-2023 10:47:41  Nodes: 1  Procs: 1

 Temporary files are created in /scratch/kid_0.595445404 (0x58465342)

1
 TUNGSTEN ATOM 4d CORE RELATIVISTIC, Point Nuc, A and c from 
 N J RN H ZN XION ANUC CLIGHT
 5000   22100.00000000197.36710137 74.00000000  0.00000000  183.950932  0.1370360E+03
  PH   PHI     EPS        DEL        DELRVR
  0.30  0.30     2500.00  0.00001000  0.00001000
 IDIRC  NC1  NDEBU NPRIN  IPUN IRCOR IWCOR
   1   300     0     0     0     0    14
   XALPHA      XLATTER      RNUC
  0.70000000  0.00000000  0.00000000 Point Charge
   XN   XL   XJ      XE          XZ      XDELL
  1.0  0.0  0.5   -2600.000       2.000     0.00000
  2.0  0.0  0.5    -425.000       2.000     0.00000
  2.0  1.0  0.5    -425.000       2.000     0.00000
  2.0  1.0  1.5    -425.000       4.000     0.00000
  3.0  0.0  0.5    -100.000       2.000     0.00000
  3.0  1.0  0.5    -100.000       2.000     0.00000
  3.0  1.0  1.5    -100.000       4.000     0.00000
  3.0  2.0  1.5     -80.000       4.000     0.00000
  3.0  2.0  2.5     -80.000       6.000     0.00000
  4.0  0.0  0.5     -22.000       2.000     0.00000
  4.0  1.0  0.5     -20.000       2.000     0.00000
  4.0  1.0  1.5     -20.000       4.000     0.00000
  4.0  2.0  1.5     -11.000       4.000     0.00000
  4.0  2.0  2.5     -11.000       6.000     0.00000
  4.0  3.0  2.5      -1.000       6.000     0.00000
  4.0  3.0  3.5      -1.000       8.000     0.00000
  5.0  0.0  0.5      -3.000       2.000     0.00000
  5.0  1.0  0.5      -2.200       2.000     0.00000
  5.0  1.0  1.5      -2.200       4.000     0.00000
  5.0  2.0  1.5      -0.500       4.000     0.00000
  5.0  2.0  2.5      -0.500       0.000     0.00000
  6.0  0.0  0.5      -0.200       2.000     0.00000
 ICORP=  0  NPCL=  0  DEMP=0.00  PEPS=0.000000
 R(1)=  0.1000000E-08 D=  0.1005080E+01 RNUC=  0.0000000E+00
 converged at cycle   63  DENSITY AVERAGING    0.1536
  MAXIMUM ERROR IN R.V(R) IS   0.78838062E-05
 Q,EY,EV,EZ,ESUM,ETOT,RHO  0.740000E+02 -0.431420E+03 -0.281568E+05 -0.403919E+05 -0.993885E+04 -0.161643E+05  0.726391E-09


 DIRAC CALCULATION
1                    TUNGSTEN ATOM 4d CORE RELATIVISTIC, Point Nuc, A and c from libtc


 EXCHANGE COEFFICIENT=  0.7000000           TAIL CORRECTION=  0.           NUCLEAR RADIUS=  0.000E+00
0                       ORBITAL    N    L    J     ELECTRONS     EIGENVALUE                DELTA OF EIGENV.

                          1S1/2  1.0  0.0  0.5     2.000       -0.2549514E+04                 0.5980248E-04
                          2S1/2  2.0  0.0  0.5     2.000       -0.4399118E+03                 0.5052420E-04
                          2P1/2  2.0  1.0  0.5     2.000       -0.4208427E+03                 0.5265062E-04
                          2P3/2  2.0  1.0  1.5     4.000       -0.3711192E+03                 0.5139441E-04
                          3S1/2  3.0  0.0  0.5     2.000       -0.1012881E+03                 0.3437035E-04
                          3P1/2  3.0  1.0  0.5     2.000       -0.9277148E+02                 0.3553128E-04
                          3P3/2  3.0  1.0  1.5     4.000       -0.8201733E+02                 0.3404634E-04
                          3D3/2  3.0  2.0  1.5     4.000       -0.6762803E+02                 0.3680712E-04
                          3D5/2  3.0  2.0  2.5     6.000       -0.6528623E+02                 0.3629511E-04
                          4S1/2  4.0  0.0  0.5     2.000       -0.2084139E+02                 0.1939427E-04
                          4P1/2  4.0  1.0  0.5     2.000       -0.1730737E+02                 0.1933978E-04
                          4P3/2  4.0  1.0  1.5     4.000       -0.1480597E+02                 0.1810922E-04
                          4D3/2  4.0  2.0  1.5     4.000       -0.8989319E+01                 0.1779394E-04
                          4D5/2  4.0  2.0  2.5     6.000       -0.8528007E+01                 0.1741170E-04
                          4F5/2  4.0  3.0  2.5     6.000       -0.1237480E+01                 0.1544089E-04
                          4F7/2  4.0  3.0  3.5     8.000       -0.1154634E+01                 0.1522033E-04
                          5S1/2  5.0  0.0  0.5     2.000       -0.2863514E+01                 0.7979521E-05
                          5P1/2  5.0  1.0  0.5     2.000       -0.1813289E+01                 0.7246225E-05
                          5P3/2  5.0  1.0  1.5     4.000       -0.1448762E+01                 0.6602120E-05
                          5D3/2  5.0  2.0  1.5     4.000       -0.1486933E+00                 0.3973088E-05
                          5D5/2  5.0  2.0  2.5     0.000       -0.1223153E+00                 0.3735081E-05
                          6S1/2  6.0  0.0  0.5     2.000       -0.1847434E+00                 0.1808440E-05


                                        NUCLEAR CHARGE=   74.000000
                            INTEGRAL OF CHARGE DENSITY=   74.000000
                           SUM OF THE ORBITAL ENERGIES=  -9938.8529
                                          TOTAL ENERGY= -16164.2530
                                        KINETIC ENERGY=  18217.9700
                             NUCLEAR ATTRACTION ENERGY= -40391.9132
                             ELECTRON REPULSION ENERGY=   6333.2551
                                       EXCHANGE ENERGY=   -323.5649

 *******************************************************************************

                             D I R A C   E X I T
 NORMAL TERMINATION



 =================
 Timing Statistics
 =================
  
 Total Used :                     CPU=        0.86      System=        0.00     Elapsed=        0.87

 Calls  Section                     ( Mean, Percentage )
 ---------------------------------------------------------------------------------------------------
     2  ><      ................      0.00    0.00             0.00    0.00             0.00    0.00
     1  EXIT PROCEDURE .........      0.86  100.00             0.00  100.00             0.87  100.00


 Currently Open Files (EXIT00)
 ====================

 Unit    Access Format  Status   Type       Ident (file)
 -------------------------------------------------------
   3      SEQ    FORM   TRANSP  NORMAL      LOGFILE
                                          ( logfile )
 
Create W   file=TZP-W.4d
XC
  GGA PBE
End
relativistic ZORA
Corepotentials t12.rel
End

 *******************************************************************************
 *                                                                             *
 *  -------------------------------------                                      *
 *   Amsterdam Density Functional  (ADF)         2019                          *
 *  -------------------------------------                                      *
 *                                               r79301 2019-11-09             *
 *                                                                             *
 *                                                                             *
 *                              =================                              *
 *                              |               |                              *
 *                              |     A D F     |                              *
 *                              |               |                              *
 *                              =================                              *
 *                                                                             *
 *                                                                             *
 *   Online information and documentation:  https://www.scm.com/support/       *
 *   E-mail:  support@scm.com   info@scm.com                                   *
 *                                                                             *
 *   Scientific publications using ADF results must be properly referenced     *
 *   See the User Manuals (or the web site) for recommended citations          *
 *   The terms and conditions of the End User License Agreement apply to       *
 *   the use of ADF, https://www.scm.com/license-terms/                        *
 *                                                                             *
 **********************  x86_64_linux_intel / intelmpi  ************************
 
  
 ADF 2019  RunTime: Dec11-2023 10:47:42  Nodes: 1  Procs: 1

 Temporary files are created in /scratch/kid_0.442908634 (0x58465342)

 Tungsten (TZP, 4d frozen)



 ===========================
 A T T A C H E D   F I L E S
 ===========================
  
 CREATE - Data File:    TZP-W.4d
                        Tungsten (TZP, 4d frozen)
 Core Potentials:
         file : t12.rel



 ===============================
 M O D E L   P A R A M E T E R S
 ===============================
  
 DENSITY FUNCTIONAL POTENTIAL (scf)
    LDA:                               PW92                                    == Not Default ==
    Gradient Corrections:              PBEc PBEx                               == Not Default ==

 SPIN  (restricted / unrestr.)
    Molecule:                          Restricted                               

 OTHER ASPECTS
    Relativistic Corrections:          scalar (ZORA,MAPA)                      == Not Default ==

    Nuclear Charge Density Model:      Point Charge Nuclei                      
    Core Treatment:                    Frozen Orbital(s)                        

    Hyperfine or Zeeman Interaction:   ---                                      



 =====================================
 S Y M M E T R Y ,   E L E C T R O N S
 =====================================
  
 Symmetry: ATOM

 Irreducible Representations, including subspecies
 -------------------------------------------------
 S
 P:x  P:y  P:z
 D:z2  D:x2-y2  D:xy  D:xz  D:yz
 F:z3  F:z  F:xyz  F:z2x  F:z2y  F:x  F:y


 Configuration of Valence Electrons
 ==================================

          Occupation Numbers
          -------------------------------------------------
 S        2*2
 P        6
 D        4
 F        14
          -------------------------------------------------

 Total:   28

 Net Charge: 0 (Nuclei minus Electrons)

 Preset values for MO occupations will be applied through SCF cycle no. 1000000
 Thereafter, the program will assign electrons to MOs that are spatially
 similar to the occupied MOs in a "reference" cycle ("KeepOrbitals").
 The reference cycle is always the PREVIOUS cycle: it will evolve with
 the SCF procedure.



 ================================
 (Slater-type)  F U N C T I O N S  ***  (Basis and Fit)  ***
 ================================
  

 Atom Type    1  (W)
 ==============

 Valence Basis Sets:  25
 -----------------------
   1 S   52.000000
   2 S   33.250000
   3 S   19.100000
   4 S   11.650000
   2 P   36.850000
   3 P   16.500000
   4 P   11.550000
   3 D   20.100000
   4 D   10.300000
   1 S  163.900000
   5 S    6.050000
   5 S    3.950000
   6 S    2.850000
   6 S    1.800000
   6 S    1.140000
   5 P    5.900000
   5 P    4.000000
   5 P    2.700000
   5 D    4.150000
   5 D    2.250000
   5 D    1.200000
   4 F   13.550000
   4 F    7.050000
   4 F    3.550000
   6 P    1.800000

 Frozen Core Shells
 ------------------
    S:  4
    P:  3
    D:  2


 BAS: List of all Elementary Cartesian Basis Functions
 =====================================================

 The numbering in the list below (to the right of the function characteristics) is referred
 to in print-outs of MO eigenvectors and Mulliken populations in the BAS representation
 (as contrasted to the SFO representation).

 Notes:
 1. The functions are characterized by a polynomial prefactor (powers of x,y,z and r) and
    an exponential decay factor alpha.
 2. Since the basis sets are specific for an atom TYPE, the individual functions occur on
    all atoms of that type.
 3. The word 'Core' in the left margin signals that it is a Core Function (CF) : not a
    degree of freedom in the valence set, but only used to ensure orthogonalization of
    the other valence basis functions on the frozen Core Orbitals.


 (power of) X  Y  Z  R     Alpha  on Atom
            ==========     =====     ==========

 W                                    1
                                  ---------------------------------------------------------------------------
    Core    0  0  0  0    52.000      1
    Core    0  0  0  1    33.250      2
    Core    0  0  0  2    19.100      3
    Core    0  0  0  3    11.650      4
    Core    1  0  0  0    36.850      5
    Core    0  1  0  0    36.850      6
    Core    0  0  1  0    36.850      7
    Core    1  0  0  1    16.500      8
    Core    0  1  0  1    16.500      9
    Core    0  0  1  1    16.500     10
    Core    1  0  0  2    11.550     11
    Core    0  1  0  2    11.550     12
    Core    0  0  1  2    11.550     13
    Core    2  0  0  0    20.100     14
    Core    1  1  0  0    20.100     15
    Core    1  0  1  0    20.100     16
    Core    0  2  0  0    20.100     17
    Core    0  1  1  0    20.100     18
    Core    0  0  2  0    20.100     19
    Core    2  0  0  1    10.300     20
    Core    1  1  0  1    10.300     21
    Core    1  0  1  1    10.300     22
    Core    0  2  0  1    10.300     23
    Core    0  1  1  1    10.300     24
    Core    0  0  2  1    10.300     25
            0  0  0  0   163.900     26
            0  0  0  4     6.050     27
            0  0  0  4     3.950     28
            0  0  0  5     2.850     29
            0  0  0  5     1.800     30
            0  0  0  5     1.140     31
            1  0  0  3     5.900     32
            0  1  0  3     5.900     33
            0  0  1  3     5.900     34
            1  0  0  3     4.000     35
            0  1  0  3     4.000     36
            0  0  1  3     4.000     37
            1  0  0  3     2.700     38
            0  1  0  3     2.700     39
            0  0  1  3     2.700     40
            2  0  0  2     4.150     41
            1  1  0  2     4.150     42
            1  0  1  2     4.150     43
            0  2  0  2     4.150     44
            0  1  1  2     4.150     45
            0  0  2  2     4.150     46
            2  0  0  2     2.250     47
            1  1  0  2     2.250     48
            1  0  1  2     2.250     49
            0  2  0  2     2.250     50
            0  1  1  2     2.250     51
            0  0  2  2     2.250     52
            2  0  0  2     1.200     53
            1  1  0  2     1.200     54
            1  0  1  2     1.200     55
            0  2  0  2     1.200     56
            0  1  1  2     1.200     57
            0  0  2  2     1.200     58
            3  0  0  0    13.550     59
            2  1  0  0    13.550     60
            2  0  1  0    13.550     61
            1  2  0  0    13.550     62
            1  1  1  0    13.550     63
            1  0  2  0    13.550     64
            0  3  0  0    13.550     65
            0  2  1  0    13.550     66
            0  1  2  0    13.550     67
            0  0  3  0    13.550     68
            3  0  0  0     7.050     69
            2  1  0  0     7.050     70
            2  0  1  0     7.050     71
            1  2  0  0     7.050     72
            1  1  1  0     7.050     73
            1  0  2  0     7.050     74
            0  3  0  0     7.050     75
            0  2  1  0     7.050     76
            0  1  2  0     7.050     77
            0  0  3  0     7.050     78
            3  0  0  0     3.550     79
            2  1  0  0     3.550     80
            2  0  1  0     3.550     81
            1  2  0  0     3.550     82
            1  1  1  0     3.550     83
            1  0  2  0     3.550     84
            0  3  0  0     3.550     85
            0  2  1  0     3.550     86
            0  1  2  0     3.550     87
            0  0  3  0     3.550     88
            1  0  0  4     1.800     89
            0  1  0  4     1.800     90
            0  0  1  4     1.800     91

 Total number of charge fitting functions (nprimf)       329
 Total number of Cartesian basis functions (naos)         91
 Total number of Cartesian core functions  (ncos)         25



 BAS: List of all Elementary Cartesian Basis Functions
 =====================================================

 The numbering in the list below (to the right of the function characteristics) is referred
 to in print-outs of MO eigenvectors and Mulliken populations in the BAS representation
 (as contrasted to the SFO representation).

 Notes:
 1. The functions are characterized by a polynomial prefactor (powers of x,y,z and r) and
    an exponential decay factor alpha.
 2. Since the basis sets are specific for an atom TYPE, the individual functions occur on
    all atoms of that type.
 3. The word 'Core' in the left margin signals that it is a Core Function (CF) : not a
    degree of freedom in the valence set, but only used to ensure orthogonalization of
    the other valence basis functions on the frozen Core Orbitals.


 (power of) X  Y  Z  R     Alpha  on Atom
            ==========     =====     ==========

 W                                    1
                                  ---------------------------------------------------------------------------
    Core    0  0  0  0    52.000      1
    Core    0  0  0  1    33.250      2
    Core    0  0  0  2    19.100      3
    Core    0  0  0  3    11.650      4
    Core    1  0  0  0    36.850      5
    Core    0  1  0  0    36.850      6
    Core    0  0  1  0    36.850      7
    Core    1  0  0  1    16.500      8
    Core    0  1  0  1    16.500      9
    Core    0  0  1  1    16.500     10
    Core    1  0  0  2    11.550     11
    Core    0  1  0  2    11.550     12
    Core    0  0  1  2    11.550     13
    Core    2  0  0  0    20.100     14
    Core    1  1  0  0    20.100     15
    Core    1  0  1  0    20.100     16
    Core    0  2  0  0    20.100     17
    Core    0  1  1  0    20.100     18
    Core    0  0  2  0    20.100     19
    Core    2  0  0  1    10.300     20
    Core    1  1  0  1    10.300     21
    Core    1  0  1  1    10.300     22
    Core    0  2  0  1    10.300     23
    Core    0  1  1  1    10.300     24
    Core    0  0  2  1    10.300     25
            0  0  0  0   163.900     26
            0  0  0  4     6.050     27
            0  0  0  4     3.950     28
            0  0  0  5     2.850     29
            0  0  0  5     1.800     30
            0  0  0  5     1.140     31
            1  0  0  3     5.900     32
            0  1  0  3     5.900     33
            0  0  1  3     5.900     34
            1  0  0  3     4.000     35
            0  1  0  3     4.000     36
            0  0  1  3     4.000     37
            1  0  0  3     2.700     38
            0  1  0  3     2.700     39
            0  0  1  3     2.700     40
            2  0  0  2     4.150     41
            1  1  0  2     4.150     42
            1  0  1  2     4.150     43
            0  2  0  2     4.150     44
            0  1  1  2     4.150     45
            0  0  2  2     4.150     46
            2  0  0  2     2.250     47
            1  1  0  2     2.250     48
            1  0  1  2     2.250     49
            0  2  0  2     2.250     50
            0  1  1  2     2.250     51
            0  0  2  2     2.250     52
            2  0  0  2     1.200     53
            1  1  0  2     1.200     54
            1  0  1  2     1.200     55
            0  2  0  2     1.200     56
            0  1  1  2     1.200     57
            0  0  2  2     1.200     58
            3  0  0  0    13.550     59
            2  1  0  0    13.550     60
            2  0  1  0    13.550     61
            1  2  0  0    13.550     62
            1  1  1  0    13.550     63
            1  0  2  0    13.550     64
            0  3  0  0    13.550     65
            0  2  1  0    13.550     66
            0  1  2  0    13.550     67
            0  0  3  0    13.550     68
            3  0  0  0     7.050     69
            2  1  0  0     7.050     70
            2  0  1  0     7.050     71
            1  2  0  0     7.050     72
            1  1  1  0     7.050     73
            1  0  2  0     7.050     74
            0  3  0  0     7.050     75
            0  2  1  0     7.050     76
            0  1  2  0     7.050     77
            0  0  3  0     7.050     78
            3  0  0  0     3.550     79
            2  1  0  0     3.550     80
            2  0  1  0     3.550     81
            1  2  0  0     3.550     82
            1  1  1  0     3.550     83
            1  0  2  0     3.550     84
[...]
   19.O        11.146712    7.001214    2.090535
   20.O        15.822909    8.424021    3.726612
   21.O        11.310537    9.247453    0.516368
   22.O        15.486842   11.124519    2.391046
   23.O        13.544636   12.733197    3.614864
   24.O         9.875729   12.999222    4.002673
   25.H        13.016531   12.529630    4.465231
 <Dec11-2023> <10:47:45>  >>>> CORORT
 <Dec11-2023> <10:47:45>  >>>> CLSMAT
 <Dec11-2023> <10:47:45>  >>>> ORTHON
 <Dec11-2023> <10:47:45>  >>>> GENPT
 <Dec11-2023> <10:47:45>  Block Length= 128
 <Dec11-2023> <10:47:45>  >>>> PTBAS
 <Dec11-2023> <10:47:49>  combining surface points...
 <Dec11-2023> <10:47:49>  combining surface points...
 <Dec11-2023> <10:47:49>  combining surface points...
 <Dec11-2023> <10:47:49>  >>>> CYCLE
 <Dec11-2023> <10:47:54>              |Error|         MaxErr       Wt(A-DIIS)
 <Dec11-2023> <10:47:54>      1     76.65206407      6.85204113
 <Dec11-2023> <10:47:59>      2      4.68849082      0.17888153    100.0
 <Dec11-2023> <10:48:04>      3      9.53931559      0.50083821    100.0
 <Dec11-2023> <10:48:09>      4      6.11414386      0.39155254    100.0
 <Dec11-2023> <10:48:13>      5      1.69537448      0.07701763     76.8
 <Dec11-2023> <10:48:18>      6      3.16948653      0.27497953    100.0
 <Dec11-2023> <10:48:23>      7      1.80131466      0.07994794     79.7
 <Dec11-2023> <10:48:27>      8      0.85130373      0.08168291     79.7
 <Dec11-2023> <10:48:32>      9      0.74869551      0.06119526     60.8
 <Dec11-2023> <10:48:37>     10      0.36735327      0.02158188     20.8
 <Dec11-2023> <10:48:41>     11      0.11833065      0.00790012      7.0
 <Dec11-2023> <10:48:46>     12      0.03547535      0.00278918      1.8
 <Dec11-2023> <10:48:50>     13      0.01465868      0.00079077      0.0
 <Dec11-2023> <10:48:55>     14      0.00652407      0.00051783      0.0
 <Dec11-2023> <10:49:00>     15      0.00276013      0.00018373      0.0
 <Dec11-2023> <10:49:04>     16      0.00097915      0.00004734      0.0
 <Dec11-2023> <10:49:09>     17      0.00042062      0.00002657      0.0
 <Dec11-2023> <10:49:13>     18      0.00038882      0.00002441      0.0
 <Dec11-2023> <10:49:18>     19      0.00009850      0.00000750      0.0
 <Dec11-2023> <10:49:22>     20      0.00013192      0.00001099      0.0
 <Dec11-2023> <10:49:27>     21      0.00003225      0.00000233      0.0
 <Dec11-2023> <10:49:32>     22      0.00001449      0.00000095      0.0
 <Dec11-2023> <10:49:36>     23      0.00000645      0.00000035      0.0
 <Dec11-2023> <10:49:38>  SCF converged
 <Dec11-2023> <10:49:41>     24      0.00001076      0.00000075      0.0
 <Dec11-2023> <10:49:43>  >>>> TOTEN
 <Dec11-2023> <10:49:48>  >>>> POPAN
 <Dec11-2023> <10:49:48>  >>>> DEBYE
 <Dec11-2023> <10:49:48>  >>>> ENGRAD
 <Dec11-2023> <10:50:00>  current energy                               -8.40989129 Hartree
 <Dec11-2023> <10:50:00>  energy change                      -8.40989129     0.00100000    F
 <Dec11-2023> <10:50:00>  constrained gradient max            0.00090652     0.00100000    T
 <Dec11-2023> <10:50:00>  constrained gradient rms            0.00029589     0.00066667    T
 <Dec11-2023> <10:50:00>  gradient max                        0.00090652
 <Dec11-2023> <10:50:00>  gradient rms                        0.00029589
 <Dec11-2023> <10:50:00>  cart. step max                      0.00114781     0.01000000    T
 <Dec11-2023> <10:50:00>  cart. step rms                      0.00035480     0.00666667    T
  Coordinates in Geometry Cycle 2
    Atom         X           Y           Z   (Angstrom)
    1.W        13.716393   11.094027    2.548442
    2.W        14.125060    8.052533    4.192884
    3.W        11.911753   10.240778    5.374603
    4.W         9.514510   11.398305    3.284817
    5.W        11.321438    8.772575    2.237316
    6.O        13.229742   11.770672    0.982651
    7.O        13.405453    9.173373    2.212107
    8.O        13.846816    6.514315    3.305675
    9.O        13.804468   10.145990    4.585758
   10.O        14.299382    7.519596    5.894076
   11.O        11.608110   10.778655    3.165457
   12.O        12.008706    8.434137    4.304004
   13.O        10.070204   10.401383    5.179680
   14.O         7.784581   11.144230    3.737136
   15.O         9.401493   11.809737    1.543800
   16.O         9.604083    9.240993    2.740054
   17.O        12.325928   11.969453    5.786848
   18.O        12.021890    9.450393    6.969394
   19.O        11.147023    7.001355    2.090283
   20.O        15.822720    8.424888    3.726857
   21.O        11.310722    9.247314    0.515897
   22.O        15.486633   11.123914    2.390853
   23.O        13.545113   12.733449    3.614567
   24.O         9.875151   12.999159    4.003331
   25.H        13.017027   12.529000    4.464083
 <Dec11-2023> <10:50:00>  >>>> CORORT
 <Dec11-2023> <10:50:00>  >>>> CLSMAT
 <Dec11-2023> <10:50:00>  >>>> ORTHON
 <Dec11-2023> <10:50:00>  >>>> GENPT
 <Dec11-2023> <10:50:00>  Block Length= 128
 <Dec11-2023> <10:50:01>  >>>> PTBAS
 <Dec11-2023> <10:50:04>  combining surface points...
 <Dec11-2023> <10:50:04>  combining surface points...
 <Dec11-2023> <10:50:04>  combining surface points...
 <Dec11-2023> <10:50:04>  >>>> CYCLE
 <Dec11-2023> <10:50:10>              |Error|         MaxErr       Wt(A-DIIS)
 <Dec11-2023> <10:50:10>      1      0.18134597      0.00844669
 <Dec11-2023> <10:50:15>      2      0.56777191      0.02432643    100.0
 <Dec11-2023> <10:50:20>      3      0.19911103      0.01004484    100.0
 <Dec11-2023> <10:50:24>      4      0.34913557      0.01720052    100.0
 <Dec11-2023> <10:50:29>      5      0.52041703      0.02942441    100.0
 <Dec11-2023> <10:50:34>      6      0.15416797      0.01051588      9.6
 <Dec11-2023> <10:50:39>      7      0.11235288      0.01004874      9.1
 <Dec11-2023> <10:50:43>      8      0.02860327      0.00191385      0.9
 <Dec11-2023> <10:50:48>      9      0.00972041      0.00082040      0.0
 <Dec11-2023> <10:50:53>     10      0.00731745      0.00035948      0.0
 <Dec11-2023> <10:50:57>     11      0.00268082      0.00013131      0.0
 <Dec11-2023> <10:51:02>     12      0.00068970      0.00005314      0.0
 <Dec11-2023> <10:51:06>     13      0.00035926      0.00003016      0.0
 <Dec11-2023> <10:51:11>     14      0.00021453      0.00001316      0.0
 <Dec11-2023> <10:51:16>     15      0.00006854      0.00000425      0.0
 <Dec11-2023> <10:51:20>     16      0.00003218      0.00000177      0.0
 <Dec11-2023> <10:51:25>     17      0.00001108      0.00000065      0.0
 <Dec11-2023> <10:51:29>     18      0.00000656      0.00000039      0.0
 <Dec11-2023> <10:51:31>  SCF converged
 <Dec11-2023> <10:51:34>     19      0.00000235      0.00000012      0.0
 <Dec11-2023> <10:51:36>  >>>> TOTEN
 <Dec11-2023> <10:51:41>  >>>> POPAN
 <Dec11-2023> <10:51:41>  >>>> DEBYE
 <Dec11-2023> <10:51:41>  >>>> ENGRAD
 <Dec11-2023> <10:51:53>  current energy                               -8.40989943 Hartree
 <Dec11-2023> <10:51:53>  energy change                      -0.00000814     0.00100000    T
 <Dec11-2023> <10:51:53>  constrained gradient max            0.00097009     0.00100000    T
 <Dec11-2023> <10:51:53>  constrained gradient rms            0.00024853     0.00066667    T
 <Dec11-2023> <10:51:53>  gradient max                        0.00097009
 <Dec11-2023> <10:51:53>  gradient rms                        0.00024853
 <Dec11-2023> <10:51:53>  cart. step max                      0.00272663     0.01000000    T
 <Dec11-2023> <10:51:53>  cart. step rms                      0.00105684     0.00666667    T
 <Dec11-2023> <10:51:53>  GEOMETRY CONVERGED
 <Dec11-2023> <10:51:53>  Calculating Energy Terms for Final Geometry
  Coordinates in Geometry Cycle 2
    Atom         X           Y           Z   (Angstrom)
    1.W        13.716393   11.094027    2.548442
    2.W        14.125060    8.052533    4.192884
    3.W        11.911753   10.240778    5.374603
    4.W         9.514510   11.398305    3.284817
    5.W        11.321438    8.772575    2.237316
    6.O        13.229742   11.770672    0.982651
    7.O        13.405453    9.173373    2.212107
    8.O        13.846816    6.514315    3.305675
    9.O        13.804468   10.145990    4.585758
   10.O        14.299382    7.519596    5.894076
   11.O        11.608110   10.778655    3.165457
   12.O        12.008706    8.434137    4.304004
   13.O        10.070204   10.401383    5.179680
   14.O         7.784581   11.144230    3.737136
   15.O         9.401493   11.809737    1.543800
   16.O         9.604083    9.240993    2.740054
   17.O        12.325928   11.969453    5.786848
   18.O        12.021890    9.450393    6.969394
   19.O        11.147023    7.001355    2.090283
   20.O        15.822720    8.424888    3.726857
   21.O        11.310722    9.247314    0.515897
   22.O        15.486633   11.123914    2.390853
   23.O        13.545113   12.733449    3.614567
   24.O         9.875151   12.999159    4.003331
   25.H        13.017027   12.529000    4.464083
 <Dec11-2023> <10:51:53>  >>>> CORORT
 <Dec11-2023> <10:51:53>  >>>> CLSMAT
 <Dec11-2023> <10:51:53>  >>>> ORTHON
 <Dec11-2023> <10:51:53>  >>>> GENPT
 <Dec11-2023> <10:51:53>  Block Length= 128
 <Dec11-2023> <10:51:54>  >>>> PTBAS
 <Dec11-2023> <10:51:57>  combining surface points...
 <Dec11-2023> <10:51:57>  combining surface points...
 <Dec11-2023> <10:51:57>  combining surface points...
 <Dec11-2023> <10:51:57>  >>>> CYCLE
 <Dec11-2023> <10:52:03>              |Error|         MaxErr       Wt(A-DIIS)
 <Dec11-2023> <10:52:03>      1      0.17524462      0.00827338
 <Dec11-2023> <10:52:08>      2      0.56790176      0.03261675    100.0
 <Dec11-2023> <10:52:13>      3      0.19934516      0.01154267    100.0
 <Dec11-2023> <10:52:17>      4      0.35100232      0.02269516    100.0
 <Dec11-2023> <10:52:22>      5      0.51610195      0.03723595    100.0
 <Dec11-2023> <10:52:27>      6      0.15477884      0.01231997     11.4
 <Dec11-2023> <10:52:31>      7      0.11873784      0.01015905      9.3
 <Dec11-2023> <10:52:36>      8      0.02853471      0.00189653      0.9
 <Dec11-2023> <10:52:41>      9      0.00971785      0.00080563      0.0
 <Dec11-2023> <10:52:45>     10      0.00730275      0.00041080      0.0
 <Dec11-2023> <10:52:50>     11      0.00268874      0.00016727      0.0
 <Dec11-2023> <10:52:55>     12      0.00069064      0.00005284      0.0
 <Dec11-2023> <10:52:59>     13      0.00035819      0.00003158      0.0
 <Dec11-2023> <10:53:04>     14      0.00021471      0.00001661      0.0
 <Dec11-2023> <10:53:08>     15      0.00006851      0.00000481      0.0
 <Dec11-2023> <10:53:13>     16      0.00003219      0.00000212      0.0
 <Dec11-2023> <10:53:17>     17      0.00001234      0.00000093      0.0
 <Dec11-2023> <10:53:22>     18      0.00000573      0.00000034      0.0
 <Dec11-2023> <10:53:23>  SCF converged
 <Dec11-2023> <10:53:26>     19      0.00000259      0.00000016      0.0
 <Dec11-2023> <10:53:30>  >>>> TOTEN
 <Dec11-2023> <10:53:43>  QTAIM: determining topology...
 <Dec11-2023> <10:53:56>  >>>> POPAN
 <Dec11-2023> <10:53:56>  >>>> DEBYE
 <Dec11-2023> <10:53:56>  >>>> AMETS
 <Dec11-2023> <10:53:56>  >>>> POPUL
 <Dec11-2023> <10:53:56>   Bond Energy          -8.40989943 a.u.
 <Dec11-2023> <10:53:56>   Bond Energy        -228.84500720 eV
 <Dec11-2023> <10:53:56>   Bond Energy       -5277.29       kcal/mol
 <Dec11-2023> <10:53:56>  >>>> ENHESS
 <Dec11-2023> <10:54:16>  === NUCLEUS:     1
 <Dec11-2023> <10:59:16>  === NUCLEUS:     2
 <Dec11-2023> <11:03:51>  === NUCLEUS:     3
 <Dec11-2023> <11:08:27>  === NUCLEUS:     4
 <Dec11-2023> <11:13:01>  === NUCLEUS:     5
 <Dec11-2023> <11:17:42>  === NUCLEUS:     6
 <Dec11-2023> <11:21:58>  === NUCLEUS:     7
 <Dec11-2023> <11:26:14>  === NUCLEUS:     8
 <Dec11-2023> <11:30:24>  === NUCLEUS:     9
 <Dec11-2023> <11:34:41>  === NUCLEUS:    10
 <Dec11-2023> <11:38:50>  === NUCLEUS:    11
 <Dec11-2023> <11:43:06>  === NUCLEUS:    12
 <Dec11-2023> <11:47:22>  === NUCLEUS:    13
 <Dec11-2023> <11:51:37>  === NUCLEUS:    14
 <Dec11-2023> <11:55:46>  === NUCLEUS:    15
 <Dec11-2023> <11:59:48>  === NUCLEUS:    16
 <Dec11-2023> <12:04:03>  === NUCLEUS:    17
 <Dec11-2023> <12:08:19>  === NUCLEUS:    18
 <Dec11-2023> <12:12:28>  === NUCLEUS:    19
 <Dec11-2023> <12:16:30>  === NUCLEUS:    20
 <Dec11-2023> <12:20:45>  === NUCLEUS:    21
 <Dec11-2023> <12:24:48>  === NUCLEUS:    22
 <Dec11-2023> <12:28:51>  === NUCLEUS:    23
 <Dec11-2023> <12:33:05>  === NUCLEUS:    24
 <Dec11-2023> <12:37:25>  === NUCLEUS:    25
 <Dec11-2023> <12:41:39>  >>>> CALC_HESS_PMAT
 <Dec11-2023> <12:42:28>  >>>> CALC_HESS_WMAT
 <Dec11-2023> <12:42:38>  Symmetry  : NOSYM
 <Dec11-2023> <12:42:38>  >>>> FRAGM
 <Dec11-2023> <12:42:38>  Geometry symmetry displacement    1 out of    2
  Coordinates in Geometry Cycle 2
    Atom         X           Y           Z   (Angstrom)
    1.W        13.716364   11.094044    2.548393
    2.W        14.125093    8.052562    4.192843
    3.W        11.911745   10.240781    5.374611
    4.W         9.514553   11.398359    3.284786
    5.W        11.321397    8.772481    2.237434
    6.O        13.229578   11.770752    0.982676
    7.O        13.405481    9.173437    2.212142
    8.O        13.847483    6.514877    3.304519
    9.O        13.804439   10.145957    4.585806
   10.O        14.298588    7.518656    5.893821
   11.O        11.608099   10.778628    3.165471
   12.O        12.008699    8.434105    4.303979
   13.O        10.070192   10.401370    5.179669
   14.O         7.784611   11.144323    3.737083
   15.O         9.401578   11.809818    1.543773
   16.O         9.604043    9.241066    2.739985
   17.O        12.325907   11.969452    5.786859
   18.O        12.021919    9.450397    6.969400
   19.O        11.146762    7.001255    2.090656
   20.O        15.822987    8.425366    3.728010
   21.O        11.310846    9.246977    0.515936
   22.O        15.486590   11.123863    2.390612
   23.O        13.545206   12.733412    3.614624
   24.O         9.875228   12.999191    4.003332
   25.H        13.017104   12.528971    4.464130
 <Dec11-2023> <12:42:38>  >>>> CORORT
 <Dec11-2023> <12:42:38>  >>>> CLSMAT
 <Dec11-2023> <12:42:38>  >>>> ORTHON
 <Dec11-2023> <12:42:39>  >>>> GENPT
 <Dec11-2023> <12:42:39>  Block Length= 128
 <Dec11-2023> <12:42:39>  >>>> PTBAS
 <Dec11-2023> <12:42:42>  combining surface points...
 <Dec11-2023> <12:42:42>  combining surface points...
 <Dec11-2023> <12:42:42>  combining surface points...
 <Dec11-2023> <12:42:42>  >>>> CYCLE
 <Dec11-2023> <12:42:48>              |Error|         MaxErr       Wt(A-DIIS)
 <Dec11-2023> <12:42:48>      1      0.17999398      0.00991493
 <Dec11-2023> <12:42:53>      2      0.56792850      0.02434901    100.0
 <Dec11-2023> <12:42:58>      3      0.19928878      0.01006622    100.0
 <Dec11-2023> <12:43:03>      4      0.35034854      0.01725708    100.0
 <Dec11-2023> <12:43:07>      5      0.51821784      0.02931938    100.0
 <Dec11-2023> <12:43:12>      6      0.15462122      0.01058239      9.7
 <Dec11-2023> <12:43:17>      7      0.11265562      0.01007246      9.2
 <Dec11-2023> <12:43:21>      8      0.02859204      0.00190489      0.9
 <Dec11-2023> <12:43:26>      9      0.00971797      0.00081885      0.0
 <Dec11-2023> <12:43:31>     10      0.00729793      0.00035877      0.0
 <Dec11-2023> <12:43:35>     11      0.00268526      0.00013131      0.0
 <Dec11-2023> <12:43:40>     12      0.00068993      0.00005310      0.0
 <Dec11-2023> <12:43:44>     13      0.00035933      0.00003015      0.0
 <Dec11-2023> <12:43:49>     14      0.00021567      0.00001334      0.0
 <Dec11-2023> <12:43:54>     15      0.00006859      0.00000425      0.0
 <Dec11-2023> <12:43:58>     16      0.00003223      0.00000177      0.0
 <Dec11-2023> <12:44:03>     17      0.00001136      0.00000067      0.0
 <Dec11-2023> <12:44:07>     18      0.00000641      0.00000038      0.0
 <Dec11-2023> <12:44:09>  SCF converged
 <Dec11-2023> <12:44:12>     19      0.00000241      0.00000013      0.0
 <Dec11-2023> <12:44:14>  >>>> TOTEN
 <Dec11-2023> <12:44:15>  >>>> POPAN
 <Dec11-2023> <12:44:15>  >>>> DEBYE
 <Dec11-2023> <12:44:15>  >>>> ENGRAD
 <Dec11-2023> <12:44:27>  Geometry symmetry displacement    2 out of    2
  Coordinates in Geometry Cycle 2
    Atom         X           Y           Z   (Angstrom)
    1.W        13.716422   11.094010    2.548490
    2.W        14.125027    8.052504    4.192925
    3.W        11.911762   10.240774    5.374595
    4.W         9.514466   11.398251    3.284848
    5.W        11.321479    8.772670    2.237198
    6.O        13.229905   11.770593    0.982627
    7.O        13.405426    9.173309    2.212072
    8.O        13.846149    6.513753    3.306831
    9.O        13.804496   10.146023    4.585709
   10.O        14.300175    7.520536    5.894330
   11.O        11.608121   10.778681    3.165442
   12.O        12.008712    8.434168    4.304029
   13.O        10.070215   10.401397    5.179691
   14.O         7.784551   11.144136    3.737190
   15.O         9.401407   11.809656    1.543828
   16.O         9.604122    9.240920    2.740124
   17.O        12.325949   11.969454    5.786837
   18.O        12.021861    9.450388    6.969387
   19.O        11.147284    7.001456    2.089911
   20.O        15.822452    8.424411    3.725703
   21.O        11.310598    9.247650    0.515857
   22.O        15.486676   11.123964    2.391093
   23.O        13.545020   12.733487    3.614509
   24.O         9.875074   12.999128    4.003330
   25.H        13.016951   12.529028    4.464036
 <Dec11-2023> <12:44:27>  >>>> CORORT
 <Dec11-2023> <12:44:27>  >>>> CLSMAT
 <Dec11-2023> <12:44:27>  >>>> ORTHON
 <Dec11-2023> <12:44:27>  >>>> GENPT
 <Dec11-2023> <12:44:28>  Block Length= 128
 <Dec11-2023> <12:44:28>  >>>> PTBAS
 <Dec11-2023> <12:44:31>  combining surface points...
 <Dec11-2023> <12:44:31>  combining surface points...
 <Dec11-2023> <12:44:31>  combining surface points...
 <Dec11-2023> <12:44:31>  >>>> CYCLE
 <Dec11-2023> <12:44:37>              |Error|         MaxErr       Wt(A-DIIS)
 <Dec11-2023> <12:44:37>      1      0.19353746      0.01981223
 <Dec11-2023> <12:44:42>      2      0.56782792      0.02434290    100.0
 <Dec11-2023> <12:44:47>      3      0.19945579      0.01008677    100.0
 <Dec11-2023> <12:44:51>      4      0.35228800      0.01735717    100.0
 <Dec11-2023> <12:44:56>      5      0.51200913      0.02894486    100.0
 <Dec11-2023> <12:45:01>      6      0.15510252      0.01066359      9.8
 <Dec11-2023> <12:45:06>      7      0.11353586      0.01015043      9.2
 <Dec11-2023> <12:45:10>      8      0.02850521      0.00190489      0.9
 <Dec11-2023> <12:45:15>      9      0.00971565      0.00081677      0.0
 <Dec11-2023> <12:45:19>     10      0.00730349      0.00036061      0.0
 <Dec11-2023> <12:45:24>     11      0.00268574      0.00013143      0.0
 <Dec11-2023> <12:45:29>     12      0.00068947      0.00005305      0.0
 <Dec11-2023> <12:45:33>     13      0.00035835      0.00003014      0.0
 <Dec11-2023> <12:45:38>     14      0.00021603      0.00001329      0.0
 <Dec11-2023> <12:45:42>     15      0.00006866      0.00000427      0.0
 <Dec11-2023> <12:45:47>     16      0.00003228      0.00000179      0.0
 <Dec11-2023> <12:45:51>     17      0.00001200      0.00000071      0.0
 <Dec11-2023> <12:45:56>     18      0.00000622      0.00000037      0.0
 <Dec11-2023> <12:45:57>  SCF converged
 <Dec11-2023> <12:46:00>     19      0.00000264      0.00000014      0.0
 <Dec11-2023> <12:46:02>  >>>> TOTEN
 <Dec11-2023> <12:46:03>  >>>> POPAN
 <Dec11-2023> <12:46:03>  >>>> DEBYE
 <Dec11-2023> <12:46:04>  >>>> ENGRAD
 <Dec11-2023> <12:46:16>  Old frequency:    -41.68668, new:     29.15877
 <Dec11-2023> <12:46:16>  NOTE: Some frequencies have been re-calculated by numerical differentiation
 <Dec11-2023> <12:46:16>        Check the text output file for new values!
 <Dec11-2023> <12:46:16>  NORMAL TERMINATION
 <Dec11-2023> <12:46:16>  END
