 *******************************************************************************
 *                                                                             *
 *  -------------------------------------                                      *
 *   Amsterdam Density Functional  (ADF)         2019                          *
 *  -------------------------------------                                      *
 *                                               r79301 2019-11-09             *
 *                                                                             *
 *                                                                             *
 *                            =====================                            *
 *                            |                   |                            *
 *                            |     D I R A C     |                            *
 *                            |                   |                            *
 *                            =====================                            *
 *                                                                             *
 *                                                                             *
 *   Online information and documentation:  https://www.scm.com/support/       *
 *   E-mail:  support@scm.com   info@scm.com                                   *
 *                                                                             *
 *   Scientific publications using ADF results must be properly referenced     *
 *   See the User Manuals (or the web site) for recommended citations          *
 *   The terms and conditions of the End User License Agreement apply to       *
 *   the use of ADF, https://www.scm.com/license-terms/                        *
 *                                                                             *
 **********************  x86_64_linux_intel / intelmpi  ************************
 
  
 DIRAC 2019  RunTime: Dec11-2023 10:47:43  Nodes: 1  Procs: 1

 Temporary files are created in /scratch/kid_0.799670289 (0x58465342)

1
 HYDROGEN ATOM RELATIVISTIC, Point Nuc, A and c from libtc   
 N J RN H ZN XION ANUC CLIGHT
 5000    1100.00000000197.36710137  1.00000000  0.00000000    1.007825  0.1370360E+03
  PH   PHI     EPS        DEL        DELRVR
  0.30  0.30     2500.00  0.00001000  0.00001000
 IDIRC  NC1  NDEBU NPRIN  IPUN IRCOR IWCOR
   1   300     0     0     0     0     0
   XALPHA      XLATTER      RNUC
  0.70000000  0.00000000  0.00000000 Point Charge
   XN   XL   XJ      XE          XZ      XDELL
  1.0  0.0  0.5      -1.000       1.000     0.00000
 ICORP=  0  NPCL=  0  DEMP=0.00  PEPS=0.000000
 R(1)=  0.1000000E-08 D=  0.1005080E+01 RNUC=  0.0000000E+00
 converged at cycle   32  DENSITY AVERAGING    0.2400
  MAXIMUM ERROR IN R.V(R) IS   0.79874357E-05
 Q,EY,EV,EZ,ESUM,ETOT,RHO  0.100000E+01 -0.266614E+00 -0.619969E+00 -0.910779E+00 -0.203940E+00 -0.415998E+00  0.337036E-17


 DIRAC CALCULATION
1                    HYDROGEN ATOM RELATIVISTIC, Point Nuc, A and c from libtc


 EXCHANGE COEFFICIENT=  0.7000000           TAIL CORRECTION=  0.           NUCLEAR RADIUS=  0.000E+00
0                       ORBITAL    N    L    J     ELECTRONS     EIGENVALUE                DELTA OF EIGENV.

                          1S1/2  1.0  0.0  0.5     1.000       -0.2039397E+00                 0.2720093E-06


                                        NUCLEAR CHARGE=    1.000000
                            INTEGRAL OF CHARGE DENSITY=    1.000000
                           SUM OF THE ORBITAL ENERGIES=     -0.2039
                                          TOTAL ENERGY=     -0.4160
                                        KINETIC ENERGY=      0.4160
                             NUCLEAR ATTRACTION ENERGY=     -0.9108
                             ELECTRON REPULSION ENERGY=      0.2787
                                       EXCHANGE ENERGY=     -0.2000

 *******************************************************************************

                             D I R A C   E X I T
 NORMAL TERMINATION



 =================
 Timing Statistics
 =================
  
 Total Used :                     CPU=        0.07      System=        0.00     Elapsed=        0.09

 Calls  Section                     ( Mean, Percentage )
 ---------------------------------------------------------------------------------------------------
     2  ><      ................      0.00    0.00             0.00    0.00             0.00    0.01
     1  EXIT PROCEDURE .........      0.07  100.00             0.00    0.00             0.09   99.99


 Currently Open Files (EXIT00)
 ====================

 Unit    Access Format  Status   Type       Ident (file)
 -------------------------------------------------------
   3      SEQ    FORM   TRANSP  NORMAL      LOGFILE
                                          ( logfile )
 
Create H   file=TZP-H
XC
  GGA PBE
End
relativistic ZORA
Corepotentials t12.rel
End

 *******************************************************************************
 *                                                                             *
 *  -------------------------------------                                      *
 *   Amsterdam Density Functional  (ADF)         2019                          *
 *  -------------------------------------                                      *
 *                                               r79301 2019-11-09             *
 *                                                                             *
 *                                                                             *
 *                              =================                              *
 *                              |               |                              *
 *                              |     A D F     |                              *
 *                              |               |                              *
 *                              =================                              *
 *                                                                             *
 *                                                                             *
 *   Online information and documentation:  https://www.scm.com/support/       *
 *   E-mail:  support@scm.com   info@scm.com                                   *
 *                                                                             *
 *   Scientific publications using ADF results must be properly referenced     *
 *   See the User Manuals (or the web site) for recommended citations          *
 *   The terms and conditions of the End User License Agreement apply to       *
 *   the use of ADF, https://www.scm.com/license-terms/                        *
 *                                                                             *
 **********************  x86_64_linux_intel / intelmpi  ************************
 
  
 ADF 2019  RunTime: Dec11-2023 10:47:45  Nodes: 1  Procs: 1

 Temporary files are created in /scratch/kid_0.1652481905 (0x58465342)

 Hydrogen (TZP)



 ===========================
 A T T A C H E D   F I L E S
 ===========================
  
 CREATE - Data File:    TZP-H
                        Hydrogen (TZP)
 Core Potentials:
         file : t12.rel



 ===============================
 M O D E L   P A R A M E T E R S
 ===============================
  
 DENSITY FUNCTIONAL POTENTIAL (scf)
    LDA:                               PW92                                    == Not Default ==
    Gradient Corrections:              PBEc PBEx                               == Not Default ==

 SPIN  (restricted / unrestr.)
    Molecule:                          Restricted                               

 OTHER ASPECTS
    Relativistic Corrections:          scalar (ZORA,MAPA)                      == Not Default ==

    Nuclear Charge Density Model:      Point Charge Nuclei                      
    Core Treatment:                    Frozen Orbital(s)                        

    Hyperfine or Zeeman Interaction:   ---                                      



 =====================================
 S Y M M E T R Y ,   E L E C T R O N S
 =====================================
  
 Symmetry: ATOM

 Irreducible Representations, including subspecies
 -------------------------------------------------
 S
 P:x  P:y  P:z
 D:z2  D:x2-y2  D:xy  D:xz  D:yz
 F:z3  F:z  F:xyz  F:z2x  F:z2y  F:x  F:y


 Configuration of Valence Electrons
 ==================================

          Occupation Numbers
          -------------------------------------------------
 S        1
 P        0
 D        0
 F        0
          -------------------------------------------------

 Total:   1

 Net Charge: 0 (Nuclei minus Electrons)

 Preset values for MO occupations will be applied through SCF cycle no. 1000000
 Thereafter, the program will assign electrons to MOs that are spatially
 similar to the occupied MOs in a "reference" cycle ("KeepOrbitals").
 The reference cycle is always the PREVIOUS cycle: it will evolve with
 the SCF procedure.



 ================================
 (Slater-type)  F U N C T I O N S  ***  (Basis and Fit)  ***
 ================================
  

 Atom Type    1  (H)
 ==============

 Valence Basis Sets:   4
 -----------------------
   1 S    0.690000
   1 S    0.920000
   1 S    1.580000
   2 P    1.250000


 BAS: List of all Elementary Cartesian Basis Functions
 =====================================================

 The numbering in the list below (to the right of the function characteristics) is referred
 to in print-outs of MO eigenvectors and Mulliken populations in the BAS representation
 (as contrasted to the SFO representation).

 Notes:
 1. The functions are characterized by a polynomial prefactor (powers of x,y,z and r) and
    an exponential decay factor alpha.
 2. Since the basis sets are specific for an atom TYPE, the individual functions occur on
    all atoms of that type.
 3. The word 'Core' in the left margin signals that it is a Core Function (CF) : not a
    degree of freedom in the valence set, but only used to ensure orthogonalization of
    the other valence basis functions on the frozen Core Orbitals.


 (power of) X  Y  Z  R     Alpha  on Atom
            ==========     =====     ==========

 H                                    1
                                  ---------------------------------------------------------------------------
            0  0  0  0     0.690      1
            0  0  0  0     0.920      2
            0  0  0  0     1.580      3
            1  0  0  0     1.250      4
            0  1  0  0     1.250      5
            0  0  1  0     1.250      6

 Total number of charge fitting functions (nprimf)        50
 Total number of Cartesian basis functions (naos)          6
 Total number of Cartesian core functions  (ncos)          0



 BAS: List of all Elementary Cartesian Basis Functions
 =====================================================

 The numbering in the list below (to the right of the function characteristics) is referred
 to in print-outs of MO eigenvectors and Mulliken populations in the BAS representation
 (as contrasted to the SFO representation).

 Notes:
 1. The functions are characterized by a polynomial prefactor (powers of x,y,z and r) and
    an exponential decay factor alpha.
 2. Since the basis sets are specific for an atom TYPE, the individual functions occur on
    all atoms of that type.
 3. The word 'Core' in the left margin signals that it is a Core Function (CF) : not a
    degree of freedom in the valence set, but only used to ensure orthogonalization of
    the other valence basis functions on the frozen Core Orbitals.


 (power of) X  Y  Z  R     Alpha  on Atom
            ==========     =====     ==========

 H                                    1
                                  ---------------------------------------------------------------------------
            0  0  0  0     0.690      1
            0  0  0  0     0.920      2
            0  0  0  0     1.580      3
            1  0  0  0     1.250      4
            0  1  0  0     1.250      5
            0  0  1  0     1.250      6
1
 ***************************************************************************************************



                                              ***********************
                                              *  T E C H N I C A L  *
                                              ***********************
  



 =============================================================
 P A R A L L E L I Z A T I O N  and  V E C T O R I Z A T I O N
 =============================================================
  
 Nr of parallel processes:                                1
 Maximum vector length in NumInt loops:                 128



 =====================
 S C F   U P D A T E S
 =====================
  
 Max. nr. of cycles:                               300
 Convergence criterion:                              0.0000000100
   secondary criterion:                              0.0000000100

 Mix parameter (when DIIS does not apply):           0.2000000000
 Special mix parameter for the first cycle:          1.0000000000
 Mixed ADIIS+SDIIS will be used                  
    Max number of expansion vectors:                10
    Pure ADIIS when Max([F,P]) is above              0.1000000000
    Pure SDIIS when Max([F,P]) is below              0.0010000000
 Automatic ElectronSmearing (in case of problematic SCF convergence) disabled



 =================
 P R E C I S I O N  ***  (General: NumInt, NeglectFunctionTails, ...)  ***
 =================
  

 NumInt:           Target precision:                12.0000000000
 -------           Initial precision:               10.0000000000
                   Min. precision (optimization):   10.0000000000

 Neglect Functions:          Basis functions:        0.1000000000E-13
 ------------------          Fit functions:          0.1000000000E-13



 ===========================
 L I N E A R   S C A L I N G
 ===========================
  

 Cut-off radii density fit:                        0.1000000000E-97
 Overlap cut-off criterion AO matrix elements:     0.1000000000E-97
 Cut-offs for Coulomb potential and fitted density:0.1000000000E-97
 Cut-off criterion for Coulomb multipole terms:    0.1000000000E-97
 Progressive Convergence parameter:                 0.000000000    
1
 ***************************************************************************************************



                                            ***************************
                                            *  C O M P U T A T I O N  *
                                            ***************************
  

 Number of elements of the density matrix on this node (used, total):        21        21



 ===========================================
 Numerical Integration : Fuzzy Cells (Becke)
 ===========================================
  
 Becke grid quality: VERYGOOD       
  
 Lebedev angular grid order:             min:  13 max:  41
 Nr. of radial points:                   min:  64 max:  64

 Total nr. of points:         64
 Nr. of blocks:                1
 Block length:                64
 Nr. of dummy points:          0


 Test of Precision of the Numerical Integration Grid
 ===================================================

 Integral of the Total Core Density:                   0.00000000000000



 ========================
 Density Fitting (zlmFit)
 ========================
  
 ZlmFit Fit Quality: VERYGOOD       
  
 Max L-expansion:                        min:   0 max:   0
 Nr. of radial interpolation points:     min: 120 max: 120



 =====
 S C F  ***  ScaSCF  ***
 =====
  

 CYCLE    1
 SCF Error: norm([F,P])=      0.000000000000, max([F,P])=      0.000000000000
 orbitals (Q,E):
 ---------------
 S :1...3            ( 1.00    -0.5000)  ( 0.00    -0.0900)  ( 0.00     1.2936)
 P :1...1            ( 0.00     0.1562)

 CYCLE    2
 SCF Error: norm([F,P])=      0.031537872292, max([F,P])=      0.030110494752
 orbitals (Q,E):
 ---------------
 S :1...2            ( 1.00    -0.2218)  ( 0.00     0.1019)
 P :1...1            ( 0.00     0.4189)

 CYCLE    3
  SDIIS (wt  0.000):  0.1996  0.8004
 A-DIIS (wt  1.000):  0.0000  1.0000
  DIIS coefficients:  0.0000  1.0000
 SCF Error: norm([F,P])=      0.008617989401, max([F,P])=      0.008343029399
 orbitals (Q,E):
 ---------------
 S :1...2            ( 1.00    -0.2422)  ( 0.00     0.0889)
 P :1...1            ( 0.00     0.4024)

 CYCLE    4
  SDIIS (wt  0.993):  0.1666  0.8334
 A-DIIS (wt  0.007):  0.0000  1.0000
  DIIS coefficients:  0.1654  0.8346
 SCF Error: norm([F,P])=      0.001732350026, max([F,P])=      0.001718616814
 orbitals (Q,E):
 ---------------
 S :1...2            ( 1.00    -0.2385)  ( 0.00     0.0908)
 P :1...1            ( 0.00     0.4054)

 CYCLE    5
  SDIIS (wt  1.000):  0.0236  0.9764
  DIIS coefficients:  0.0236  0.9764
 SCF Error: norm([F,P])=      0.000043673449, max([F,P])=      0.000039769875
 orbitals (Q,E):
 ---------------
 S :1...2            ( 1.00    -0.2386)  ( 0.00     0.0908)
 P :1...1            ( 0.00     0.4054)

 CYCLE    6
  SDIIS (wt  1.000): -0.0577  1.0577
  DIIS coefficients: -0.0577  1.0577
 SCF Error: norm([F,P])=      0.000002383805, max([F,P])=      0.000002158128
 orbitals (Q,E):
 ---------------
 S :1...2            ( 1.00    -0.2386)  ( 0.00     0.0908)
 P :1...1            ( 0.00     0.4054)

 CYCLE    7
  SDIIS (wt  1.000): -0.0032  1.0032
  DIIS coefficients: -0.0032  1.0032
 SCF Error: norm([F,P])=      0.000000007721, max([F,P])=      0.000000007228
 orbitals (Q,E):
 ---------------
 S :1...2            ( 1.00    -0.2386)  ( 0.00     0.0908)
 P :1...1            ( 0.00     0.4054)

 SCF CONVERGED

 CYCLE    8
1
 ***************************************************************************************************



                                                *******************
                                                *  R E S U L T S  *
                                                *******************
  
 *** Using FIT density in Focky
  SDIIS (wt  1.000):  0.0192  0.9808
  DIIS coefficients:  0.0192  0.9808
 SCF Error: norm([F,P])=      0.000000000151, max([F,P])=      0.000000000141

 Scaled ZORA Orbital Energies, per Irrep and Spin:
 =================================================
                        Occup              E (au)              E (eV)       Diff (eV) with prev. cycle
                        -----      --------------------        ------       --------------------------
 S
               1        1.000     -0.23861775226993E+00        -6.493               7.43E-09
               2        0.000      0.90791701709251E-01         2.471
               3        0.000      0.15217530108908E+01        41.409
 P
               1        0.000      0.40537978060393E+00        11.031


 Partially Occupied:
               1 S                -0.23861775226993E+00
  
 LUMO :        2 S                 0.90791701709251E-01
  


 Orbital Energies, all Irreps
 ========================================

 Irrep        no.  (spin)   Occup              E (au)                E (eV)
 ---------------------------------------------------------------------------
 S             1             1.00       -0.23861775226993E+00        -6.4931
 S             2             0.00        0.90791701709251E-01         2.4706
 P             1             0.00        0.40537978060393E+00        11.0309
 S             3             0.00        0.15217530108908E+01        41.4090


 All Electron Calculation, thus no Orbital Energies of the Core Orbitals are calculated



 =======================================
 M U L L I K E N   P O P U L A T I O N S
 =======================================
  
 The survey below gives for each atom:
 a) the total charge (Z minus electrons)
 b) the net spin polarization (nr of electrons spin-A minus spin-B)
 c) for each spin the atomic electron valence density (integrated) per L-value.

 Atom              Charge    Spin density          S         P         D         F
 ----              ------    ------------       ------    ------    ------    ------
 1 H              -0.0000                       1.0000    0.0000    0.0000    0.0000

 Populations of individual BAS functions
 ----------------------------------------
 1 H            0.2104  0.6788  0.1107  0.0000  0.0000  0.0000

 Gross Charges per Atom (Z minus electrons)
 ==========================================
            -0.0000
 Net Total: -0.00000000



 =======================================================================
 Electrostatic potential at the Nuclei due to electrons and other nuclei
 =======================================================================
  
         Atom                  Potential
         ----                  ---------
     1)   H                   0.94468022
 
 
 ========================
 No memory problems found
 ========================
 
 Maximum number of active allocate calls:         306
 
 *******************************************************************************

                             A D F   E X I T
 NORMAL TERMINATION



 =================
 Timing Statistics
 =================
  
 Total Used :                     CPU=        0.35      System=        0.04     Elapsed=        1.22

 Calls  Section                     ( Mean, Percentage )
 ---------------------------------------------------------------------------------------------------
     3  ><      ................      0.00    0.00             0.00   10.00             0.00    0.41
     1  INIT    ................      0.07   19.54             0.02   50.00             0.74   60.80
     1  GEOMET  ................      0.02    5.75             0.00    0.00             0.04    3.46
     1  INPUTA  ................      0.00    1.15             0.00    0.00             0.00    0.33
     1  MAINSY  ................      0.00    1.15             0.00   10.00             0.05    4.41
     1  SYMFIT  ................      0.00    0.00             0.00    0.00             0.06    4.97
     1  CORORT  ................      0.00    1.15             0.00    0.00             0.00    0.20
     1  SYMORB  ................      0.00    0.00             0.00    0.00             0.00    0.06
     1  CLSMAT  ................      0.00    1.15             0.00    0.00             0.01    0.53
     1  ORTHON  ................      0.00    1.15             0.00    0.00             0.01    0.49
     1  GENPT   ................      0.01    3.45             0.00    0.00             0.01    1.16
     1  PTBAS   ................      0.00    1.15             0.00    0.00             0.01    0.41
     8  FOCKY   ................      0.02   50.57             0.00   30.00             0.03   16.37
     8  FOCKTR  ................      0.00    0.00             0.00    0.00             0.00    0.33
     8  SDIIS   ................      0.00    4.60             0.00    0.00             0.00    2.96
     1  COREPS  ................      0.02    4.60             0.00    0.00             0.01    1.20
     1  POPAN   ................      0.00    1.15             0.00    0.00             0.01    0.43
     1  DEBYE   ................      0.00    0.00             0.00    0.00             0.00    0.18
     1  EXIT PROCEDURE .........      0.01    3.45             0.00    0.00             0.02    1.28


 Currently Open Files (EXIT00)
 ====================

 Unit    Access Format  Status   Type       Ident (file)
 -------------------------------------------------------
   3      SEQ    FORM   TRANSP  NORMAL      LOGFILE
                                          ( logfile )

 ***************************************************************************************************
 (LOGFILE)
 <Dec11-2023> <10:47:43>  DIRAC 2019  RunTime: Dec11-2023 10:47:43  Nodes: 1  Procs: 1
 <Dec11-2023> <10:47:44>  NORMAL TERMINATION
 <Dec11-2023> <10:47:44>  END
 <Dec11-2023> <10:47:45>  ADF 2019  RunTime: Dec11-2023 10:47:45  Nodes: 1  Procs: 1
 <Dec11-2023> <10:47:46>  Hydrogen (TZP)
 <Dec11-2023> <10:47:46>  RunType   : CREATE
 <Dec11-2023> <10:47:46>  Net Charge: 0 (Nuclei minus Electrons)
 <Dec11-2023> <10:47:46>  Symmetry  : ATOM
  Coordinates
    Atom         X           Y           Z   (Angstrom)
    1.H         0.000000    0.000000    0.000000
 <Dec11-2023> <10:47:46>  >>>> CORORT
 <Dec11-2023> <10:47:46>  >>>> CLSMAT
 <Dec11-2023> <10:47:46>  >>>> ORTHON
 <Dec11-2023> <10:47:46>  >>>> GENPT
 <Dec11-2023> <10:47:46>  Block Length=  64
 <Dec11-2023> <10:47:46>  >>>> PTBAS
 <Dec11-2023> <10:47:46>  >>>> CYCLE
 <Dec11-2023> <10:47:46>              |Error|         MaxErr       Wt(A-DIIS)
 <Dec11-2023> <10:47:46>      1      0.00000000      0.00000000
 <Dec11-2023> <10:47:46>      2      0.03153787      0.03011049
 <Dec11-2023> <10:47:46>      3      0.00861799      0.00834303    100.0
 <Dec11-2023> <10:47:46>      4      0.00173235      0.00171862      0.7
 <Dec11-2023> <10:47:46>      5      0.00004367      0.00003977      0.0
 <Dec11-2023> <10:47:46>      6      0.00000238      0.00000216      0.0
 <Dec11-2023> <10:47:46>      7      0.00000001      0.00000001      0.0
 <Dec11-2023> <10:47:46>  SCF converged
 <Dec11-2023> <10:47:46>      8      0.00000000      0.00000000      0.0
 <Dec11-2023> <10:47:46>  >>>> POPAN
 <Dec11-2023> <10:47:46>  >>>> DEBYE
 <Dec11-2023> <10:47:46>  NORMAL TERMINATION
 <Dec11-2023> <10:47:46>  END

 *******************************************************************************
 *                                                                             *
 *  -------------------------------------                                      *
 *   Amsterdam Density Functional  (ADF)         2019                          *
 *  -------------------------------------                                      *
 *                                               r79301 2019-11-09             *
 *                                                                             *
 *                                                                             *
 *                            =====================                            *
 *                            |                   |                            *
 *                            |     D I R A C     |                            *
 *                            |                   |                            *
 *                            =====================                            *
 *                                                                             *
 *                                                                             *
 *   Online information and documentation:  https://www.scm.com/support/       *
 *   E-mail:  support@scm.com   info@scm.com                                   *
 *                                                                             *
 *   Scientific publications using ADF results must be properly referenced     *
 *   See the User Manuals (or the web site) for recommended citations          *
 *   The terms and conditions of the End User License Agreement apply to       *
 *   the use of ADF, https://www.scm.com/license-terms/                        *
 *                                                                             *
 **********************  x86_64_linux_intel / intelmpi  ************************
 
  
 DIRAC 2019  RunTime: Dec11-2023 10:47:46  Nodes: 1  Procs: 1

 Temporary files are created in /scratch/kid_0.1309161599 (0x58465342)

1
 OXYGEN ATOM 1s CORE RELATIVISTIC, Point Nuc, A and c from li
 N J RN H ZN XION ANUC CLIGHT
 5000    4100.00000000197.36710137  8.00000000  0.00000000   15.994914  0.1370360E+03
  PH   PHI     EPS        DEL        DELRVR
  0.30  0.30     2500.00  0.00001000  0.00001000
 IDIRC  NC1  NDEBU NPRIN  IPUN IRCOR IWCOR
   1   300     0     0     0     0     1
   XALPHA      XLATTER      RNUC
  0.70000000  0.00000000  0.00000000 Point Charge
   XN   XL   XJ      XE          XZ      XDELL
  1.0  0.0  0.5      -5.000       2.000     0.00000
  2.0  0.0  0.5      -1.000       2.000     0.00000
  2.0  1.0  0.5      -1.000       2.000     0.00000
  2.0  1.0  1.5      -1.000       2.000     0.00000
 ICORP=  0  NPCL=  0  DEMP=0.00  PEPS=0.000000
 R(1)=  0.1000000E-08 D=  0.1005080E+01 RNUC=  0.0000000E+00
 converged at cycle   28  DENSITY AVERAGING    0.2400
  MAXIMUM ERROR IN R.V(R) IS   0.81125670E-05
 Q,EY,EV,EZ,ESUM,ETOT,RHO  0.800000E+01 -0.101247E+02 -0.114961E+03 -0.177573E+03 -0.405053E+02 -0.743427E+02  0.414766E-14


 DIRAC CALCULATION
1                    OXYGEN ATOM 1s CORE RELATIVISTIC, Point Nuc, A and c from libtc


 EXCHANGE COEFFICIENT=  0.7000000           TAIL CORRECTION=  0.           NUCLEAR RADIUS=  0.000E+00
0                       ORBITAL    N    L    J     ELECTRONS     EIGENVALUE                DELTA OF EIGENV.

                          1S1/2  1.0  0.0  0.5     2.000       -0.1880014E+02                 0.7264358E-06
                          2S1/2  2.0  0.0  0.5     2.000       -0.8412236E+00                 0.5932752E-05
                          2P1/2  2.0  1.0  0.5     2.000       -0.3063203E+00                 0.5998471E-05
                          2P3/2  2.0  1.0  1.5     2.000       -0.3049609E+00                 0.5986971E-05


                                        NUCLEAR CHARGE=    8.000000
                            INTEGRAL OF CHARGE DENSITY=    8.000000
                           SUM OF THE ORBITAL ENERGIES=    -40.5053
                                          TOTAL ENERGY=    -74.3427
                                        KINETIC ENERGY=     74.4552
                             NUCLEAR ATTRACTION ENERGY=   -177.5730
                             ELECTRON REPULSION ENERGY=     36.3686
                                       EXCHANGE ENERGY=     -7.5935

 *******************************************************************************

                             D I R A C   E X I T
 NORMAL TERMINATION



 =================
 Timing Statistics
 =================
  
 Total Used :                     CPU=        0.14      System=        0.00     Elapsed=        0.16

 Calls  Section                     ( Mean, Percentage )
 ---------------------------------------------------------------------------------------------------
     2  ><      ................      0.00    0.00             0.00    0.00             0.00    0.00
     1  EXIT PROCEDURE .........      0.14  100.00             0.00    0.00             0.16  100.00


 Currently Open Files (EXIT00)
 ====================

 Unit    Access Format  Status   Type       Ident (file)
 -------------------------------------------------------
   3      SEQ    FORM   TRANSP  NORMAL      LOGFILE
                                          ( logfile )
 
Create O   file=TZP-O.1s
XC
  GGA PBE
End
relativistic ZORA
Corepotentials t12.rel
End

 *******************************************************************************
 *                                                                             *
 *  -------------------------------------                                      *
 *   Amsterdam Density Functional  (ADF)         2019                          *
 *  -------------------------------------                                      *
 *                                               r79301 2019-11-09             *
 *                                                                             *
 *                                                                             *
 *                              =================                              *
 *                              |               |                              *
 *                              |     A D F     |                              *
 *                              |               |                              *
 *                              =================                              *
 *                                                                             *
 *                                                                             *
 *   Online information and documentation:  https://www.scm.com/support/       *
 *   E-mail:  support@scm.com   info@scm.com                                   *
 *                                                                             *
 *   Scientific publications using ADF results must be properly referenced     *
 *   See the User Manuals (or the web site) for recommended citations          *
 *   The terms and conditions of the End User License Agreement apply to       *
 *   the use of ADF, https://www.scm.com/license-terms/                        *
 *                                                                             *
 **********************  x86_64_linux_intel / intelmpi  ************************
 
  
 ADF 2019  RunTime: Dec11-2023 10:47:46  Nodes: 1  Procs: 1

 Temporary files are created in /scratch/kid_0.150464080 (0x58465342)

 Oxygen (TZP, 1s frozen)



 ===========================
 A T T A C H E D   F I L E S
 ===========================
  
 CREATE - Data File:    TZP-O.1s
                        Oxygen (TZP, 1s frozen)
 Core Potentials:
         file : t12.rel



 ===============================
 M O D E L   P A R A M E T E R S
 ===============================
  
 DENSITY FUNCTIONAL POTENTIAL (scf)
    LDA:                               PW92                                    == Not Default ==
    Gradient Corrections:              PBEc PBEx                               == Not Default ==

 SPIN  (restricted / unrestr.)
    Molecule:                          Restricted                               

 OTHER ASPECTS
    Relativistic Corrections:          scalar (ZORA,MAPA)                      == Not Default ==

    Nuclear Charge Density Model:      Point Charge Nuclei                      
    Core Treatment:                    Frozen Orbital(s)                        

    Hyperfine or Zeeman Interaction:   ---                                      



 =====================================
 S Y M M E T R Y ,   E L E C T R O N S
 =====================================
  
 Symmetry: ATOM

 Irreducible Representations, including subspecies
 -------------------------------------------------
 S
 P:x  P:y  P:z
 D:z2  D:x2-y2  D:xy  D:xz  D:yz
 F:z3  F:z  F:xyz  F:z2x  F:z2y  F:x  F:y


 Configuration of Valence Electrons
 ==================================

          Occupation Numbers
          -------------------------------------------------
 S        2
 P        4
 D        0
 F        0
          -------------------------------------------------

 Total:   6

 Net Charge: 0 (Nuclei minus Electrons)

 Preset values for MO occupations will be applied through SCF cycle no. 1000000
 Thereafter, the program will assign electrons to MOs that are spatially
 similar to the occupied MOs in a "reference" cycle ("KeepOrbitals").
 The reference cycle is always the PREVIOUS cycle: it will evolve with
 the SCF procedure.



 ================================
 (Slater-type)  F U N C T I O N S  ***  (Basis and Fit)  ***
 ================================
  

 Atom Type    1  (O)
 ==============

 Valence Basis Sets:   8
 -----------------------
   1 S    7.360000
   2 S    1.720000
   2 S    2.880000
   2 S    7.580000
   2 P    1.120000
   2 P    2.080000
   2 P    4.080000
   3 D    2.000000

 Frozen Core Shells
 ------------------
    S:  1


 BAS: List of all Elementary Cartesian Basis Functions
 =====================================================

 The numbering in the list below (to the right of the function characteristics) is referred
 to in print-outs of MO eigenvectors and Mulliken populations in the BAS representation
 (as contrasted to the SFO representation).

 Notes:
 1. The functions are characterized by a polynomial prefactor (powers of x,y,z and r) and
    an exponential decay factor alpha.
 2. Since the basis sets are specific for an atom TYPE, the individual functions occur on
    all atoms of that type.
 3. The word 'Core' in the left margin signals that it is a Core Function (CF) : not a
    degree of freedom in the valence set, but only used to ensure orthogonalization of
    the other valence basis functions on the frozen Core Orbitals.


 (power of) X  Y  Z  R     Alpha  on Atom
            ==========     =====     ==========

 O                                    1
                                  ---------------------------------------------------------------------------
    Core    0  0  0  0     7.360      1
            0  0  0  1     1.720      2
            0  0  0  1     2.880      3
            0  0  0  1     7.580      4
            1  0  0  0     1.120      5
            0  1  0  0     1.120      6
            0  0  1  0     1.120      7
            1  0  0  0     2.080      8
            0  1  0  0     2.080      9
            0  0  1  0     2.080     10
            1  0  0  0     4.080     11
            0  1  0  0     4.080     12
            0  0  1  0     4.080     13
            2  0  0  0     2.000     14
            1  1  0  0     2.000     15
            1  0  1  0     2.000     16
            0  2  0  0     2.000     17
            0  1  1  0     2.000     18
            0  0  2  0     2.000     19

 Total number of charge fitting functions (nprimf)        82
 Total number of Cartesian basis functions (naos)         19
 Total number of Cartesian core functions  (ncos)          1



 BAS: List of all Elementary Cartesian Basis Functions
 =====================================================

 The numbering in the list below (to the right of the function characteristics) is referred
 to in print-outs of MO eigenvectors and Mulliken populations in the BAS representation
 (as contrasted to the SFO representation).

 Notes:
 1. The functions are characterized by a polynomial prefactor (powers of x,y,z and r) and
    an exponential decay factor alpha.
 2. Since the basis sets are specific for an atom TYPE, the individual functions occur on
    all atoms of that type.
 3. The word 'Core' in the left margin signals that it is a Core Function (CF) : not a
    degree of freedom in the valence set, but only used to ensure orthogonalization of
    the other valence basis functions on the frozen Core Orbitals.


 (power of) X  Y  Z  R     Alpha  on Atom
            ==========     =====     ==========

 O                                    1
                                  ---------------------------------------------------------------------------
    Core    0  0  0  0     7.360      1
            0  0  0  1     1.720      2
            0  0  0  1     2.880      3
            0  0  0  1     7.580      4
            1  0  0  0     1.120      5
            0  1  0  0     1.120      6
            0  0  1  0     1.120      7
            1  0  0  0     2.080      8
            0  1  0  0     2.080      9
            0  0  1  0     2.080     10
            1  0  0  0     4.080     11
            0  1  0  0     4.080     12
            0  0  1  0     4.080     13
            2  0  0  0     2.000     14
            1  1  0  0     2.000     15
            1  0  1  0     2.000     16
            0  2  0  0     2.000     17
            0  1  1  0     2.000     18
            0  0  2  0     2.000     19
1
 ***************************************************************************************************



                                              ***********************
                                              *  T E C H N I C A L  *
                                              ***********************
  



 =============================================================
 P A R A L L E L I Z A T I O N  and  V E C T O R I Z A T I O N
 =============================================================
  
 Nr of parallel processes:                                1
 Maximum vector length in NumInt loops:                 128



 =====================
 S C F   U P D A T E S
 =====================
  
 Max. nr. of cycles:                               300
 Convergence criterion:                              0.0000000100
   secondary criterion:                              0.0000000100

 Mix parameter (when DIIS does not apply):           0.2000000000
 Special mix parameter for the first cycle:          1.0000000000
 Mixed ADIIS+SDIIS will be used                  
    Max number of expansion vectors:                10
    Pure ADIIS when Max([F,P]) is above              0.1000000000
    Pure SDIIS when Max([F,P]) is below              0.0010000000
 Automatic ElectronSmearing (in case of problematic SCF convergence) disabled



 =================
 P R E C I S I O N  ***  (General: NumInt, NeglectFunctionTails, ...)  ***
 =================
  

 NumInt:           Target precision:                12.0000000000
 -------           Initial precision:               10.0000000000
                   Min. precision (optimization):   10.0000000000

 Neglect Functions:          Basis functions:        0.1000000000E-13
 ------------------          Fit functions:          0.1000000000E-13



 ===========================
 L I N E A R   S C A L I N G
 ===========================
  

 Cut-off radii density fit:                        0.1000000000E-97
 Overlap cut-off criterion AO matrix elements:     0.1000000000E-97
 Cut-offs for Coulomb potential and fitted density:0.1000000000E-97
 Cut-off criterion for Coulomb multipole terms:    0.1000000000E-97
 Progressive Convergence parameter:                 0.000000000    
1
 ***************************************************************************************************



                                            ***************************
                                            *  C O M P U T A T I O N  *
                                            ***************************
  

 Number of elements of the density matrix on this node (used, total):       190       190



 ===========================================
 Numerical Integration : Fuzzy Cells (Becke)
 ===========================================
  
 Becke grid quality: VERYGOOD       
  
 Lebedev angular grid order:             min:  13 max:  41
 Nr. of radial points:                   min:  68 max:  68

 Total nr. of points:         68
 Nr. of blocks:                1
 Block length:                68
 Nr. of dummy points:          0


 Test of Precision of the Numerical Integration Grid
 ===================================================

 Integral of the Total Core Density:                   1.99999999865610
 Relative Error:                                      -6.720E-10



 ========================
 Density Fitting (zlmFit)
 ========================
  
 ZlmFit Fit Quality: VERYGOOD       
  
 Max L-expansion:                        min:   0 max:   0
 Nr. of radial interpolation points:     min: 140 max: 140



 =====
 S C F  ***  ScaSCF  ***
 =====
  

 CYCLE    1
 SCF Error: norm([F,P])=      0.000000000000, max([F,P])=      0.000000000000
 orbitals (Q,E):
 ---------------
 S :1...3            ( 2.00    -5.3654)  ( 0.00    -2.2073)  ( 0.00    23.6692)
 P :1...3            ( 4.00    -5.0045)  ( 0.00    -2.0150)  ( 0.00    -0.3846)
 D :1...1            ( 0.00    -2.0410)

 CYCLE    2
 SCF Error: norm([F,P])=      4.562993374873, max([F,P])=      2.528971113813
 orbitals (Q,E):
 ---------------
 S :1...2            ( 2.00    -0.1548)  ( 0.00     1.6948)
 P :1...2            ( 4.00     0.1773)  ( 0.00     0.9552)
 D :1...1            ( 0.00     1.4649)

 CYCLE    3
  SDIIS (wt  0.000):  0.3378  0.6622
 A-DIIS (wt  1.000):  0.4814  0.5186
  DIIS coefficients:  0.4814  0.5186
 SCF Error: norm([F,P])=      2.723155250500, max([F,P])=      1.798667049295
 orbitals (Q,E):
 ---------------
 S :1...2            ( 2.00    -1.1093)  ( 0.00     0.7549)
 P :1...2            ( 4.00    -0.5518)  ( 0.00     0.2590)
 D :1...1            ( 0.00     0.8910)

 CYCLE    4
  SDIIS (wt  0.000):  0.0919  0.9081
 A-DIIS (wt  1.000):  0.0000  1.0000
  DIIS coefficients:  0.0000  1.0000
 SCF Error: norm([F,P])=      0.289027138405, max([F,P])=      0.130648623511
 orbitals (Q,E):
 ---------------
 S :1...2            ( 2.00    -0.7707)  ( 0.00     0.9912)
 P :1...2            ( 4.00    -0.2284)  ( 0.00     0.4046)
 D :1...1            ( 0.00     1.1288)

 CYCLE    5
  SDIIS (wt  0.000):  0.0260  0.6740  0.3001
 A-DIIS (wt  1.000):  0.0000  0.5764  0.4236
  DIIS coefficients:  0.0000  0.5764  0.4236
 SCF Error: norm([F,P])=      0.416615089426, max([F,P])=      0.232643669786
 orbitals (Q,E):
 ---------------
 S :1...2            ( 2.00    -0.8764)  ( 0.00     0.9107)
 P :1...2            ( 4.00    -0.3280)  ( 0.00     0.3557)
 D :1...1            ( 0.00     1.0703)

 CYCLE    6
  SDIIS (wt  0.942):  0.0005  0.0237 -0.0203  0.9960
 A-DIIS (wt  0.058):  0.0000  0.0000  0.0000  1.0000
  DIIS coefficients:  0.0005  0.0224 -0.0191  0.9962
 SCF Error: norm([F,P])=      0.013723272809, max([F,P])=      0.006719036732
 orbitals (Q,E):
 ---------------
 S :1...2            ( 2.00    -0.8830)  ( 0.00     0.9058)
 P :1...2            ( 4.00    -0.3343)  ( 0.00     0.3521)
 D :1...1            ( 0.00     1.0657)

 CYCLE    7
  SDIIS (wt  1.000): -0.0000  0.0016  0.0023  0.0424  0.9537
  DIIS coefficients: -0.0000  0.0016  0.0023  0.0424  0.9537
 SCF Error: norm([F,P])=      0.001103645928, max([F,P])=      0.000634039171
 orbitals (Q,E):
 ---------------
 S :1...2            ( 2.00    -0.8827)  ( 0.00     0.9060)
 P :1...2            ( 4.00    -0.3340)  ( 0.00     0.3523)
 D :1...1            ( 0.00     1.0659)

 CYCLE    8
  SDIIS (wt  1.000): -0.0000 -0.0001  0.0000 -0.0032  0.0268  0.9765
  DIIS coefficients: -0.0000 -0.0001  0.0000 -0.0032  0.0268  0.9765
 SCF Error: norm([F,P])=      0.000035919805, max([F,P])=      0.000020263970
 orbitals (Q,E):
 ---------------
 S :1...2            ( 2.00    -0.8827)  ( 0.00     0.9060)
 P :1...2            ( 4.00    -0.3340)  ( 0.00     0.3522)
 D :1...1            ( 0.00     1.0659)

 CYCLE    9
  SDIIS (wt  1.000): -0.0000  0.0008  0.0188  0.9804
  DIIS coefficients: -0.0000  0.0008  0.0188  0.9804
 SCF Error: norm([F,P])=      0.000000326384, max([F,P])=      0.000000183924
 orbitals (Q,E):
 ---------------
 S :1...2            ( 2.00    -0.8827)  ( 0.00     0.9060)
 P :1...2            ( 4.00    -0.3340)  ( 0.00     0.3522)
 D :1...1            ( 0.00     1.0659)

 CYCLE   10
  SDIIS (wt  1.000):  0.0000  0.0003  0.9996
  DIIS coefficients:  0.0000  0.0003  0.9996
 SCF Error: norm([F,P])=      0.000000000559, max([F,P])=      0.000000000306
 orbitals (Q,E):
 ---------------
 S :1...2            ( 2.00    -0.8827)  ( 0.00     0.9060)
 P :1...2            ( 4.00    -0.3340)  ( 0.00     0.3522)
 D :1...1            ( 0.00     1.0659)

 SCF CONVERGED

 CYCLE   11
1
 ***************************************************************************************************



                                                *******************
                                                *  R E S U L T S  *
                                                *******************
  
 *** Using FIT density in Focky
  SDIIS (wt  1.000): -0.0000  0.0143  0.9857
  DIIS coefficients: -0.0000  0.0143  0.9857
 SCF Error: norm([F,P])=      0.000000000010, max([F,P])=      0.000000000006

 Scaled ZORA Orbital Energies, per Irrep and Spin:
 =================================================
                        Occup              E (au)              E (eV)       Diff (eV) with prev. cycle
                        -----      --------------------        ------       --------------------------
 S
               1        2.000     -0.88272313143209E+00       -24.020              -9.28E-11
               2        0.000      0.90601345014671E+00        24.654
               3        0.000      0.29578810816937E+02       804.880
 P
               1        4.000     -0.33400585272070E+00        -9.089              -8.94E-11
               2        0.000      0.35224911365993E+00         9.585
               3        0.000      0.38342927625315E+01       104.336
 D
               1        0.000      0.10658965783141E+01        29.005


 Partially Occupied:
               1 P                -0.33400585272070E+00
  
 HOMO :        1 S                -0.88272313143209E+00
 LUMO :        2 P                 0.35224911365993E+00
  


 Orbital Energies, all Irreps
 ========================================

 Irrep        no.  (spin)   Occup              E (au)                E (eV)
 ---------------------------------------------------------------------------
 S             1             2.00       -0.88272313143209E+00       -24.0201
 P             1             4.00       -0.33400585272070E+00        -9.0888
 P             2             0.00        0.35224911365993E+00         9.5852
 S             2             0.00        0.90601345014671E+00        24.6539
 D             1             0.00        0.10658965783141E+01        29.0045
 P             3             0.00        0.38342927625315E+01       104.3364
 S             3             0.00        0.29578810816937E+02       804.8804


 Scaled ZORA Orbital Energies of the Core Orbitals:
 ==================================================

 (Note that the atoms are grouped by atomtype, see the labels, and may hence NOT be in input order)

 AtomType  Orbital  Atom                   E (au)                        E (eV)
 --------  -------  ----           --------------------        ----------------
 O           1S        1          -0.18925919758629E+02                -515.000



 =======================================
 M U L L I K E N   P O P U L A T I O N S
 =======================================
  
 The survey below gives for each atom:
 a) the total charge (Z minus electrons)
 b) the net spin polarization (nr of electrons spin-A minus spin-B)
 c) for each spin the atomic electron valence density (integrated) per L-value.

 Atom              Charge    Spin density          S         P         D         F
 ----              ------    ------------       ------    ------    ------    ------
 1 O              -0.0000                       2.0000    4.0000    0.0000    0.0000

 Populations of individual BAS functions
 ----------------------------------------
 1 O            0.0005  0.9226  1.0966 -0.0196  0.3346  0.3346  0.3346  0.7512  0.7512  0.7512
                0.2476  0.2476  0.2476  0.0000  0.0000  0.0000  0.0000  0.0000  0.0000

 Gross Charges per Atom (Z minus electrons)
 ==========================================
            -0.0000
 Net Total: -0.00000000



 =======================================================================
 Electrostatic potential at the Nuclei due to electrons and other nuclei
 =======================================================================
  
         Atom                  Potential
         ----                  ---------
     1)   O                  22.20265662
 
 
 ========================
 No memory problems found
 ========================
 
 Maximum number of active allocate calls:         389
 
 *******************************************************************************

                             A D F   E X I T
 NORMAL TERMINATION



 =================
 Timing Statistics
 =================
  
 Total Used :                     CPU=        0.47      System=        0.03     Elapsed=        0.66

 Calls  Section                     ( Mean, Percentage )
 ---------------------------------------------------------------------------------------------------
     3  ><      ................      0.00    0.85             0.00   14.28             0.00    1.48
     1  INIT    ................      0.08   16.24             0.00   14.28             0.10   15.70
     1  GEOMET  ................      0.01    2.56             0.01   28.57             0.05    7.49
     1  INPUTA  ................      0.00    0.00             0.00    0.00             0.01    0.89
     1  MAINSY  ................      0.01    2.56             0.00    0.00             0.03    4.50
     1  SYMFIT  ................      0.00    0.00             0.00    0.00             0.00    0.26
     1  CORORT  ................      0.00    0.00             0.00   14.28             0.01    0.78
     1  SYMORB  ................      0.00    0.00             0.00    0.00             0.00    0.14
     1  CLSMAT  ................      0.00    0.85             0.00    0.00             0.01    1.39
     1  ORTHON  ................      0.00    0.85             0.00   14.28             0.01    1.35
     1  GENPT   ................      0.01    2.56             0.00   14.29             0.02    3.37
     1  PTBAS   ................      0.00    0.85             0.00    0.00             0.01    1.21
    11  FOCKY   ................      0.02   54.70             0.00    0.00             0.03   45.48
    11  FOCKTR  ................      0.00    0.85             0.00    0.00             0.00    1.00
    11  SDIIS   ................      0.00    8.55             0.00    0.00             0.01    8.68
     1  COREPS  ................      0.02    4.27             0.00    0.00             0.02    3.07
     1  POPAN   ................      0.00    0.85             0.00    0.00             0.01    0.83
     1  DEBYE   ................      0.00    0.00             0.00    0.00             0.00    0.30
     1  EXIT PROCEDURE .........      0.02    3.42             0.00    0.00             0.01    2.08


 Currently Open Files (EXIT00)
 ====================

 Unit    Access Format  Status   Type       Ident (file)
 -------------------------------------------------------
   3      SEQ    FORM   TRANSP  NORMAL      LOGFILE
                                          ( logfile )

 ***************************************************************************************************
 (LOGFILE)
 <Dec11-2023> <10:47:43>  DIRAC 2019  RunTime: Dec11-2023 10:47:43  Nodes: 1  Procs: 1
 <Dec11-2023> <10:47:44>  NORMAL TERMINATION
 <Dec11-2023> <10:47:44>  END
 <Dec11-2023> <10:47:45>  ADF 2019  RunTime: Dec11-2023 10:47:45  Nodes: 1  Procs: 1
 <Dec11-2023> <10:47:46>  Hydrogen (TZP)
 <Dec11-2023> <10:47:46>  RunType   : CREATE
 <Dec11-2023> <10:47:46>  Net Charge: 0 (Nuclei minus Electrons)
 <Dec11-2023> <10:47:46>  Symmetry  : ATOM
  Coordinates
    Atom         X           Y           Z   (Angstrom)
    1.H         0.000000    0.000000    0.000000
 <Dec11-2023> <10:47:46>  >>>> CORORT
 <Dec11-2023> <10:47:46>  >>>> CLSMAT
 <Dec11-2023> <10:47:46>  >>>> ORTHON
 <Dec11-2023> <10:47:46>  >>>> GENPT
 <Dec11-2023> <10:47:46>  Block Length=  64
 <Dec11-2023> <10:47:46>  >>>> PTBAS
 <Dec11-2023> <10:47:46>  >>>> CYCLE
 <Dec11-2023> <10:47:46>              |Error|         MaxErr       Wt(A-DIIS)
 <Dec11-2023> <10:47:46>      1      0.00000000      0.00000000
 <Dec11-2023> <10:47:46>      2      0.03153787      0.03011049
 <Dec11-2023> <10:47:46>      3      0.00861799      0.00834303    100.0
 <Dec11-2023> <10:47:46>      4      0.00173235      0.00171862      0.7
 <Dec11-2023> <10:47:46>      5      0.00004367      0.00003977      0.0
 <Dec11-2023> <10:47:46>      6      0.00000238      0.00000216      0.0
 <Dec11-2023> <10:47:46>      7      0.00000001      0.00000001      0.0
 <Dec11-2023> <10:47:46>  SCF converged
 <Dec11-2023> <10:47:46>      8      0.00000000      0.00000000      0.0
 <Dec11-2023> <10:47:46>  >>>> POPAN
 <Dec11-2023> <10:47:46>  >>>> DEBYE
 <Dec11-2023> <10:47:46>  NORMAL TERMINATION
 <Dec11-2023> <10:47:46>  END
 <Dec11-2023> <10:47:46>  DIRAC 2019  RunTime: Dec11-2023 10:47:46  Nodes: 1  Procs: 1
 <Dec11-2023> <10:47:46>  NORMAL TERMINATION
 <Dec11-2023> <10:47:46>  END
 <Dec11-2023> <10:47:46>  ADF 2019  RunTime: Dec11-2023 10:47:46  Nodes: 1  Procs: 1
 <Dec11-2023> <10:47:46>  Oxygen (TZP, 1s frozen)
 <Dec11-2023> <10:47:46>  RunType   : CREATE
 <Dec11-2023> <10:47:47>  Net Charge: 0 (Nuclei minus Electrons)
 <Dec11-2023> <10:47:47>  Symmetry  : ATOM
  Coordinates
    Atom         X           Y           Z   (Angstrom)
    1.O         0.000000    0.000000    0.000000
 <Dec11-2023> <10:47:47>  >>>> CORORT
 <Dec11-2023> <10:47:47>  >>>> CLSMAT
 <Dec11-2023> <10:47:47>  >>>> ORTHON
 <Dec11-2023> <10:47:47>  >>>> GENPT
 <Dec11-2023> <10:47:47>  Block Length=  68
 <Dec11-2023> <10:47:47>  >>>> PTBAS
 <Dec11-2023> <10:47:47>  >>>> CYCLE
 <Dec11-2023> <10:47:47>              |Error|         MaxErr       Wt(A-DIIS)
 <Dec11-2023> <10:47:47>      1      0.00000000      0.00000000
 <Dec11-2023> <10:47:47>      2      4.56299337      2.52897111
 <Dec11-2023> <10:47:47>      3      2.72315525      1.79866705    100.0
 <Dec11-2023> <10:47:47>      4      0.28902714      0.13064862    100.0
 <Dec11-2023> <10:47:47>      5      0.41661509      0.23264367    100.0
 <Dec11-2023> <10:47:47>      6      0.01372327      0.00671904      5.8
 <Dec11-2023> <10:47:47>      7      0.00110365      0.00063404      0.0
 <Dec11-2023> <10:47:47>      8      0.00003592      0.00002026      0.0
 <Dec11-2023> <10:47:47>      9      0.00000033      0.00000018      0.0
 <Dec11-2023> <10:47:47>     10      0.00000000      0.00000000      0.0
 <Dec11-2023> <10:47:47>  SCF converged
 <Dec11-2023> <10:47:47>     11      0.00000000      0.00000000      0.0
 <Dec11-2023> <10:47:47>  >>>> POPAN
 <Dec11-2023> <10:47:47>  >>>> DEBYE
 <Dec11-2023> <10:47:47>  NORMAL TERMINATION
 <Dec11-2023> <10:47:47>  END

 *******************************************************************************
 *                                                                             *
 *  -------------------------------------                                      *
 *   Amsterdam Density Functional  (ADF)         2019                          *
 *  -------------------------------------                                      *
 *                                               r79301 2019-11-09             *
 *                                                                             *
 *                                                                             *
 *                            =====================                            *
 *                            |                   |                            *
 *                            |     D I R A C     |                            *
 *                            |                   |                            *
 *                            =====================                            *
 *                                                                             *
 *                                                                             *
 *   Online information and documentation:  https://www.scm.com/support/       *
 *   E-mail:  support@scm.com   info@scm.com                                   *
 *                                                                             *
 *   Scientific publications using ADF results must be properly referenced     *
 *   See the User Manuals (or the web site) for recommended citations          *
 *   The terms and conditions of the End User License Agreement apply to       *
 *   the use of ADF, https://www.scm.com/license-terms/                        *
 *                                                                             *
 **********************  x86_64_linux_intel / intelmpi  ************************
 
  
 DIRAC 2019  RunTime: Dec11-2023 10:47:47  Nodes: 1  Procs: 1

 Temporary files are created in /scratch/kid_0.1381117599 (0x58465342)

1
 TUNGSTEN ATOM 4d CORE RELATIVISTIC, Point Nuc, A and c from 
 N J RN H ZN XION ANUC CLIGHT
 5000   22100.00000000197.36710137 74.00000000  0.00000000  183.950932  0.1370360E+03
  PH   PHI     EPS        DEL        DELRVR
  0.30  0.30     2500.00  0.00001000  0.00001000
 IDIRC  NC1  NDEBU NPRIN  IPUN IRCOR IWCOR
   1   300     0     0     0     0    14
   XALPHA      XLATTER      RNUC
  0.70000000  0.00000000  0.00000000 Point Charge
   XN   XL   XJ      XE          XZ      XDELL
  1.0  0.0  0.5   -2600.000       2.000     0.00000
  2.0  0.0  0.5    -425.000       2.000     0.00000
  2.0  1.0  0.5    -425.000       2.000     0.00000
  2.0  1.0  1.5    -425.000       4.000     0.00000
  3.0  0.0  0.5    -100.000       2.000     0.00000
  3.0  1.0  0.5    -100.000       2.000     0.00000
  3.0  1.0  1.5    -100.000       4.000     0.00000
  3.0  2.0  1.5     -80.000       4.000     0.00000
  3.0  2.0  2.5     -80.000       6.000     0.00000
  4.0  0.0  0.5     -22.000       2.000     0.00000
  4.0  1.0  0.5     -20.000       2.000     0.00000
  4.0  1.0  1.5     -20.000       4.000     0.00000
  4.0  2.0  1.5     -11.000       4.000     0.00000
  4.0  2.0  2.5     -11.000       6.000     0.00000
  4.0  3.0  2.5      -1.000       6.000     0.00000
  4.0  3.0  3.5      -1.000       8.000     0.00000
  5.0  0.0  0.5      -3.000       2.000     0.00000
  5.0  1.0  0.5      -2.200       2.000     0.00000
  5.0  1.0  1.5      -2.200       4.000     0.00000
  5.0  2.0  1.5      -0.500       4.000     0.00000
  5.0  2.0  2.5      -0.500       0.000     0.00000
  6.0  0.0  0.5      -0.200       2.000     0.00000
 ICORP=  0  NPCL=  0  DEMP=0.00  PEPS=0.000000
 R(1)=  0.1000000E-08 D=  0.1005080E+01 RNUC=  0.0000000E+00
 converged at cycle   63  DENSITY AVERAGING    0.1536
  MAXIMUM ERROR IN R.V(R) IS   0.78838062E-05
 Q,EY,EV,EZ,ESUM,ETOT,RHO  0.740000E+02 -0.431420E+03 -0.281568E+05 -0.403919E+05 -0.993885E+04 -0.161643E+05  0.726391E-09


 DIRAC CALCULATION
1                    TUNGSTEN ATOM 4d CORE RELATIVISTIC, Point Nuc, A and c from libtc


 EXCHANGE COEFFICIENT=  0.7000000           TAIL CORRECTION=  0.           NUCLEAR RADIUS=  0.000E+00
0                       ORBITAL    N    L    J     ELECTRONS     EIGENVALUE                DELTA OF EIGENV.

                          1S1/2  1.0  0.0  0.5     2.000       -0.2549514E+04                 0.5980248E-04
                          2S1/2  2.0  0.0  0.5     2.000       -0.4399118E+03                 0.5052420E-04
                          2P1/2  2.0  1.0  0.5     2.000       -0.4208427E+03                 0.5265062E-04
                          2P3/2  2.0  1.0  1.5     4.000       -0.3711192E+03                 0.5139441E-04
                          3S1/2  3.0  0.0  0.5     2.000       -0.1012881E+03                 0.3437035E-04
                          3P1/2  3.0  1.0  0.5     2.000       -0.9277148E+02                 0.3553128E-04
                          3P3/2  3.0  1.0  1.5     4.000       -0.8201733E+02                 0.3404634E-04
                          3D3/2  3.0  2.0  1.5     4.000       -0.6762803E+02                 0.3680712E-04
                          3D5/2  3.0  2.0  2.5     6.000       -0.6528623E+02                 0.3629511E-04
                          4S1/2  4.0  0.0  0.5     2.000       -0.2084139E+02                 0.1939427E-04
                          4P1/2  4.0  1.0  0.5     2.000       -0.1730737E+02                 0.1933978E-04
                          4P3/2  4.0  1.0  1.5     4.000       -0.1480597E+02                 0.1810922E-04
                          4D3/2  4.0  2.0  1.5     4.000       -0.8989319E+01                 0.1779394E-04
                          4D5/2  4.0  2.0  2.5     6.000       -0.8528007E+01                 0.1741170E-04
                          4F5/2  4.0  3.0  2.5     6.000       -0.1237480E+01                 0.1544089E-04
                          4F7/2  4.0  3.0  3.5     8.000       -0.1154634E+01                 0.1522033E-04
                          5S1/2  5.0  0.0  0.5     2.000       -0.2863514E+01                 0.7979521E-05
                          5P1/2  5.0  1.0  0.5     2.000       -0.1813289E+01                 0.7246225E-05
                          5P3/2  5.0  1.0  1.5     4.000       -0.1448762E+01                 0.6602120E-05
                          5D3/2  5.0  2.0  1.5     4.000       -0.1486933E+00                 0.3973088E-05
                          5D5/2  5.0  2.0  2.5     0.000       -0.1223153E+00                 0.3735081E-05
                          6S1/2  6.0  0.0  0.5     2.000       -0.1847434E+00                 0.1808440E-05


                                        NUCLEAR CHARGE=   74.000000
                            INTEGRAL OF CHARGE DENSITY=   74.000000
                           SUM OF THE ORBITAL ENERGIES=  -9938.8529
                                          TOTAL ENERGY= -16164.2530
                                        KINETIC ENERGY=  18217.9700
                             NUCLEAR ATTRACTION ENERGY= -40391.9132
                             ELECTRON REPULSION ENERGY=   6333.2551
                                       EXCHANGE ENERGY=   -323.5649

 *******************************************************************************

                             D I R A C   E X I T
 NORMAL TERMINATION



 =================
 Timing Statistics
 =================
  
 Total Used :                     CPU=        0.86      System=        0.00     Elapsed=        0.87

 Calls  Section                     ( Mean, Percentage )
 ---------------------------------------------------------------------------------------------------
     2  ><      ................      0.00    0.00             0.00    0.00             0.00    0.00
     1  EXIT PROCEDURE .........      0.86  100.00             0.00  100.00             0.87  100.00


 Currently Open Files (EXIT00)
 ====================

 Unit    Access Format  Status   Type       Ident (file)
 -------------------------------------------------------
   3      SEQ    FORM   TRANSP  NORMAL      LOGFILE
                                          ( logfile )
 
Create W   file=TZP-W.4d
XC
  GGA PBE
End
relativistic ZORA
Corepotentials t12.rel
End

 *******************************************************************************
 *                                                                             *
 *  -------------------------------------                                      *
 *   Amsterdam Density Functional  (ADF)         2019                          *
 *  -------------------------------------                                      *
 *                                               r79301 2019-11-09             *
 *                                                                             *
 *                                                                             *
 *                              =================                              *
 *                              |               |                              *
 *                              |     A D F     |                              *
 *                              |               |                              *
 *                              =================                              *
 *                                                                             *
 *                                                                             *
 *   Online information and documentation:  https://www.scm.com/support/       *
 *   E-mail:  support@scm.com   info@scm.com                                   *
 *                                                                             *
 *   Scientific publications using ADF results must be properly referenced     *
 *   See the User Manuals (or the web site) for recommended citations          *
 *   The terms and conditions of the End User License Agreement apply to       *
 *   the use of ADF, https://www.scm.com/license-terms/                        *
 *                                                                             *
 **********************  x86_64_linux_intel / intelmpi  ************************
 
  
 ADF 2019  RunTime: Dec11-2023 10:47:48  Nodes: 1  Procs: 1

 Temporary files are created in /scratch/kid_0.1857328301 (0x58465342)

 Tungsten (TZP, 4d frozen)



 ===========================
 A T T A C H E D   F I L E S
 ===========================
  
 CREATE - Data File:    TZP-W.4d
                        Tungsten (TZP, 4d frozen)
 Core Potentials:
         file : t12.rel



 ===============================
 M O D E L   P A R A M E T E R S
 ===============================
  
 DENSITY FUNCTIONAL POTENTIAL (scf)
    LDA:                               PW92                                    == Not Default ==
    Gradient Corrections:              PBEc PBEx                               == Not Default ==

 SPIN  (restricted / unrestr.)
    Molecule:                          Restricted                               

 OTHER ASPECTS
    Relativistic Corrections:          scalar (ZORA,MAPA)                      == Not Default ==

    Nuclear Charge Density Model:      Point Charge Nuclei                      
    Core Treatment:                    Frozen Orbital(s)                        

    Hyperfine or Zeeman Interaction:   ---                                      



 =====================================
 S Y M M E T R Y ,   E L E C T R O N S
 =====================================
  
 Symmetry: ATOM

 Irreducible Representations, including subspecies
 -------------------------------------------------
 S
 P:x  P:y  P:z
 D:z2  D:x2-y2  D:xy  D:xz  D:yz
 F:z3  F:z  F:xyz  F:z2x  F:z2y  F:x  F:y


 Configuration of Valence Electrons
 ==================================

          Occupation Numbers
          -------------------------------------------------
 S        2*2
 P        6
 D        4
 F        14
          -------------------------------------------------

 Total:   28

 Net Charge: 0 (Nuclei minus Electrons)

 Preset values for MO occupations will be applied through SCF cycle no. 1000000
 Thereafter, the program will assign electrons to MOs that are spatially
 similar to the occupied MOs in a "reference" cycle ("KeepOrbitals").
 The reference cycle is always the PREVIOUS cycle: it will evolve with
 the SCF procedure.



 ================================
 (Slater-type)  F U N C T I O N S  ***  (Basis and Fit)  ***
 ================================
  

 Atom Type    1  (W)
 ==============

 Valence Basis Sets:  25
 -----------------------
   1 S   52.000000
   2 S   33.250000
   3 S   19.100000
   4 S   11.650000
   2 P   36.850000
   3 P   16.500000
   4 P   11.550000
   3 D   20.100000
   4 D   10.300000
   1 S  163.900000
   5 S    6.050000
   5 S    3.950000
   6 S    2.850000
   6 S    1.800000
   6 S    1.140000
   5 P    5.900000
   5 P    4.000000
   5 P    2.700000
   5 D    4.150000
   5 D    2.250000
   5 D    1.200000
   4 F   13.550000
   4 F    7.050000
   4 F    3.550000
   6 P    1.800000

 Frozen Core Shells
 ------------------
    S:  4
    P:  3
    D:  2


 BAS: List of all Elementary Cartesian Basis Functions
 =====================================================

 The numbering in the list below (to the right of the function characteristics) is referred
 to in print-outs of MO eigenvectors and Mulliken populations in the BAS representation
 (as contrasted to the SFO representation).

 Notes:
 1. The functions are characterized by a polynomial prefactor (powers of x,y,z and r) and
    an exponential decay factor alpha.
 2. Since the basis sets are specific for an atom TYPE, the individual functions occur on
    all atoms of that type.
 3. The word 'Core' in the left margin signals that it is a Core Function (CF) : not a
    degree of freedom in the valence set, but only used to ensure orthogonalization of
    the other valence basis functions on the frozen Core Orbitals.


 (power of) X  Y  Z  R     Alpha  on Atom
            ==========     =====     ==========

 W                                    1
                                  ---------------------------------------------------------------------------
    Core    0  0  0  0    52.000      1
    Core    0  0  0  1    33.250      2
    Core    0  0  0  2    19.100      3
    Core    0  0  0  3    11.650      4
    Core    1  0  0  0    36.850      5
    Core    0  1  0  0    36.850      6
    Core    0  0  1  0    36.850      7
    Core    1  0  0  1    16.500      8
    Core    0  1  0  1    16.500      9
    Core    0  0  1  1    16.500     10
    Core    1  0  0  2    11.550     11
    Core    0  1  0  2    11.550     12
    Core    0  0  1  2    11.550     13
    Core    2  0  0  0    20.100     14
    Core    1  1  0  0    20.100     15
    Core    1  0  1  0    20.100     16
    Core    0  2  0  0    20.100     17
    Core    0  1  1  0    20.100     18
    Core    0  0  2  0    20.100     19
    Core    2  0  0  1    10.300     20
    Core    1  1  0  1    10.300     21
    Core    1  0  1  1    10.300     22
    Core    0  2  0  1    10.300     23
    Core    0  1  1  1    10.300     24
    Core    0  0  2  1    10.300     25
            0  0  0  0   163.900     26
            0  0  0  4     6.050     27
            0  0  0  4     3.950     28
            0  0  0  5     2.850     29
            0  0  0  5     1.800     30
            0  0  0  5     1.140     31
            1  0  0  3     5.900     32
            0  1  0  3     5.900     33
            0  0  1  3     5.900     34
            1  0  0  3     4.000     35
            0  1  0  3     4.000     36
            0  0  1  3     4.000     37
            1  0  0  3     2.700     38
            0  1  0  3     2.700     39
            0  0  1  3     2.700     40
            2  0  0  2     4.150     41
            1  1  0  2     4.150     42
            1  0  1  2     4.150     43
            0  2  0  2     4.150     44
            0  1  1  2     4.150     45
            0  0  2  2     4.150     46
            2  0  0  2     2.250     47
            1  1  0  2     2.250     48
            1  0  1  2     2.250     49
            0  2  0  2     2.250     50
            0  1  1  2     2.250     51
            0  0  2  2     2.250     52
            2  0  0  2     1.200     53
            1  1  0  2     1.200     54
            1  0  1  2     1.200     55
            0  2  0  2     1.200     56
            0  1  1  2     1.200     57
            0  0  2  2     1.200     58
            3  0  0  0    13.550     59
            2  1  0  0    13.550     60
            2  0  1  0    13.550     61
            1  2  0  0    13.550     62
            1  1  1  0    13.550     63
            1  0  2  0    13.550     64
            0  3  0  0    13.550     65
            0  2  1  0    13.550     66
            0  1  2  0    13.550     67
            0  0  3  0    13.550     68
            3  0  0  0     7.050     69
            2  1  0  0     7.050     70
            2  0  1  0     7.050     71
            1  2  0  0     7.050     72
            1  1  1  0     7.050     73
            1  0  2  0     7.050     74
            0  3  0  0     7.050     75
            0  2  1  0     7.050     76
            0  1  2  0     7.050     77
            0  0  3  0     7.050     78
            3  0  0  0     3.550     79
            2  1  0  0     3.550     80
            2  0  1  0     3.550     81
            1  2  0  0     3.550     82
            1  1  1  0     3.550     83
            1  0  2  0     3.550     84
            0  3  0  0     3.550     85
            0  2  1  0     3.550     86
            0  1  2  0     3.550     87
            0  0  3  0     3.550     88
            1  0  0  4     1.800     89
            0  1  0  4     1.800     90
            0  0  1  4     1.800     91

 Total number of charge fitting functions (nprimf)       329
 Total number of Cartesian basis functions (naos)         91
 Total number of Cartesian core functions  (ncos)         25



 BAS: List of all Elementary Cartesian Basis Functions
 =====================================================

 The numbering in the list below (to the right of the function characteristics) is referred
 to in print-outs of MO eigenvectors and Mulliken populations in the BAS representation
 (as contrasted to the SFO representation).

 Notes:
 1. The functions are characterized by a polynomial prefactor (powers of x,y,z and r) and
    an exponential decay factor alpha.
 2. Since the basis sets are specific for an atom TYPE, the individual functions occur on
    all atoms of that type.
 3. The word 'Core' in the left margin signals that it is a Core Function (CF) : not a
    degree of freedom in the valence set, but only used to ensure orthogonalization of
    the other valence basis functions on the frozen Core Orbitals.


 (power of) X  Y  Z  R     Alpha  on Atom
            ==========     =====     ==========

 W                                    1
                                  ---------------------------------------------------------------------------
    Core    0  0  0  0    52.000      1
    Core    0  0  0  1    33.250      2
    Core    0  0  0  2    19.100      3
    Core    0  0  0  3    11.650      4
    Core    1  0  0  0    36.850      5
    Core    0  1  0  0    36.850      6
    Core    0  0  1  0    36.850      7
    Core    1  0  0  1    16.500      8
    Core    0  1  0  1    16.500      9
    Core    0  0  1  1    16.500     10
    Core    1  0  0  2    11.550     11
    Core    0  1  0  2    11.550     12
    Core    0  0  1  2    11.550     13
    Core    2  0  0  0    20.100     14
    Core    1  1  0  0    20.100     15
    Core    1  0  1  0    20.100     16
    Core    0  2  0  0    20.100     17
    Core    0  1  1  0    20.100     18
    Core    0  0  2  0    20.100     19
    Core    2  0  0  1    10.300     20
    Core    1  1  0  1    10.300     21
    Core    1  0  1  1    10.300     22
    Core    0  2  0  1    10.300     23
    Core    0  1  1  1    10.300     24
    Core    0  0  2  1    10.300     25
            0  0  0  0   163.900     26
            0  0  0  4     6.050     27
            0  0  0  4     3.950     28
            0  0  0  5     2.850     29
            0  0  0  5     1.800     30
            0  0  0  5     1.140     31
            1  0  0  3     5.900     32
            0  1  0  3     5.900     33
            0  0  1  3     5.900     34
            1  0  0  3     4.000     35
            0  1  0  3     4.000     36
            0  0  1  3     4.000     37
            1  0  0  3     2.700     38
            0  1  0  3     2.700     39
            0  0  1  3     2.700     40
            2  0  0  2     4.150     41
            1  1  0  2     4.150     42
            1  0  1  2     4.150     43
            0  2  0  2     4.150     44
            0  1  1  2     4.150     45
            0  0  2  2     4.150     46
            2  0  0  2     2.250     47
            1  1  0  2     2.250     48
            1  0  1  2     2.250     49
            0  2  0  2     2.250     50
            0  1  1  2     2.250     51
            0  0  2  2     2.250     52
            2  0  0  2     1.200     53
            1  1  0  2     1.200     54
            1  0  1  2     1.200     55
            0  2  0  2     1.200     56
            0  1  1  2     1.200     57
            0  0  2  2     1.200     58
            3  0  0  0    13.550     59
            2  1  0  0    13.550     60
            2  0  1  0    13.550     61
            1  2  0  0    13.550     62
            1  1  1  0    13.550     63
            1  0  2  0    13.550     64
            0  3  0  0    13.550     65
            0  2  1  0    13.550     66
            0  1  2  0    13.550     67
            0  0  3  0    13.550     68
            3  0  0  0     7.050     69
            2  1  0  0     7.050     70
            2  0  1  0     7.050     71
            1  2  0  0     7.050     72
            1  1  1  0     7.050     73
            1  0  2  0     7.050     74
            0  3  0  0     7.050     75
            0  2  1  0     7.050     76
            0  1  2  0     7.050     77
            0  0  3  0     7.050     78
            3  0  0  0     3.550     79
            2  1  0  0     3.550     80
            2  0  1  0     3.550     81
            1  2  0  0     3.550     82
            1  1  1  0     3.550     83
            1  0  2  0     3.550     84
[...]
                                          ( logfile )

 ***************************************************************************************************
 (LOGFILE)
 <Dec11-2023> <10:47:43>  DIRAC 2019  RunTime: Dec11-2023 10:47:43  Nodes: 1  Procs: 1
 <Dec11-2023> <10:47:44>  NORMAL TERMINATION
 <Dec11-2023> <10:47:44>  END
 <Dec11-2023> <10:47:45>  ADF 2019  RunTime: Dec11-2023 10:47:45  Nodes: 1  Procs: 1
 <Dec11-2023> <10:47:46>  Hydrogen (TZP)
 <Dec11-2023> <10:47:46>  RunType   : CREATE
 <Dec11-2023> <10:47:46>  Net Charge: 0 (Nuclei minus Electrons)
 <Dec11-2023> <10:47:46>  Symmetry  : ATOM
  Coordinates
    Atom         X           Y           Z   (Angstrom)
    1.H         0.000000    0.000000    0.000000
 <Dec11-2023> <10:47:46>  >>>> CORORT
 <Dec11-2023> <10:47:46>  >>>> CLSMAT
 <Dec11-2023> <10:47:46>  >>>> ORTHON
 <Dec11-2023> <10:47:46>  >>>> GENPT
 <Dec11-2023> <10:47:46>  Block Length=  64
 <Dec11-2023> <10:47:46>  >>>> PTBAS
 <Dec11-2023> <10:47:46>  >>>> CYCLE
 <Dec11-2023> <10:47:46>              |Error|         MaxErr       Wt(A-DIIS)
 <Dec11-2023> <10:47:46>      1      0.00000000      0.00000000
 <Dec11-2023> <10:47:46>      2      0.03153787      0.03011049
 <Dec11-2023> <10:47:46>      3      0.00861799      0.00834303    100.0
 <Dec11-2023> <10:47:46>      4      0.00173235      0.00171862      0.7
 <Dec11-2023> <10:47:46>      5      0.00004367      0.00003977      0.0
 <Dec11-2023> <10:47:46>      6      0.00000238      0.00000216      0.0
 <Dec11-2023> <10:47:46>      7      0.00000001      0.00000001      0.0
 <Dec11-2023> <10:47:46>  SCF converged
 <Dec11-2023> <10:47:46>      8      0.00000000      0.00000000      0.0
 <Dec11-2023> <10:47:46>  >>>> POPAN
 <Dec11-2023> <10:47:46>  >>>> DEBYE
 <Dec11-2023> <10:47:46>  NORMAL TERMINATION
 <Dec11-2023> <10:47:46>  END
 <Dec11-2023> <10:47:46>  DIRAC 2019  RunTime: Dec11-2023 10:47:46  Nodes: 1  Procs: 1
 <Dec11-2023> <10:47:46>  NORMAL TERMINATION
 <Dec11-2023> <10:47:46>  END
 <Dec11-2023> <10:47:46>  ADF 2019  RunTime: Dec11-2023 10:47:46  Nodes: 1  Procs: 1
 <Dec11-2023> <10:47:46>  Oxygen (TZP, 1s frozen)
 <Dec11-2023> <10:47:46>  RunType   : CREATE
 <Dec11-2023> <10:47:47>  Net Charge: 0 (Nuclei minus Electrons)
 <Dec11-2023> <10:47:47>  Symmetry  : ATOM
  Coordinates
    Atom         X           Y           Z   (Angstrom)
    1.O         0.000000    0.000000    0.000000
 <Dec11-2023> <10:47:47>  >>>> CORORT
 <Dec11-2023> <10:47:47>  >>>> CLSMAT
 <Dec11-2023> <10:47:47>  >>>> ORTHON
 <Dec11-2023> <10:47:47>  >>>> GENPT
 <Dec11-2023> <10:47:47>  Block Length=  68
 <Dec11-2023> <10:47:47>  >>>> PTBAS
 <Dec11-2023> <10:47:47>  >>>> CYCLE
 <Dec11-2023> <10:47:47>              |Error|         MaxErr       Wt(A-DIIS)
 <Dec11-2023> <10:47:47>      1      0.00000000      0.00000000
 <Dec11-2023> <10:47:47>      2      4.56299337      2.52897111
 <Dec11-2023> <10:47:47>      3      2.72315525      1.79866705    100.0
 <Dec11-2023> <10:47:47>      4      0.28902714      0.13064862    100.0
 <Dec11-2023> <10:47:47>      5      0.41661509      0.23264367    100.0
 <Dec11-2023> <10:47:47>      6      0.01372327      0.00671904      5.8
 <Dec11-2023> <10:47:47>      7      0.00110365      0.00063404      0.0
 <Dec11-2023> <10:47:47>      8      0.00003592      0.00002026      0.0
 <Dec11-2023> <10:47:47>      9      0.00000033      0.00000018      0.0
 <Dec11-2023> <10:47:47>     10      0.00000000      0.00000000      0.0
 <Dec11-2023> <10:47:47>  SCF converged
 <Dec11-2023> <10:47:47>     11      0.00000000      0.00000000      0.0
 <Dec11-2023> <10:47:47>  >>>> POPAN
 <Dec11-2023> <10:47:47>  >>>> DEBYE
 <Dec11-2023> <10:47:47>  NORMAL TERMINATION
 <Dec11-2023> <10:47:47>  END
 <Dec11-2023> <10:47:47>  DIRAC 2019  RunTime: Dec11-2023 10:47:47  Nodes: 1  Procs: 1
 <Dec11-2023> <10:47:48>  NORMAL TERMINATION
 <Dec11-2023> <10:47:48>  END
 <Dec11-2023> <10:47:48>  ADF 2019  RunTime: Dec11-2023 10:47:48  Nodes: 1  Procs: 1
 <Dec11-2023> <10:47:48>  Tungsten (TZP, 4d frozen)
 <Dec11-2023> <10:47:48>  RunType   : CREATE
 <Dec11-2023> <10:47:48>  Net Charge: 0 (Nuclei minus Electrons)
 <Dec11-2023> <10:47:48>  Symmetry  : ATOM
  Coordinates
    Atom         X           Y           Z   (Angstrom)
    1.W         0.000000    0.000000    0.000000
 <Dec11-2023> <10:47:48>  >>>> CORORT
 <Dec11-2023> <10:47:48>  >>>> CLSMAT
 <Dec11-2023> <10:47:48>  >>>> ORTHON
 <Dec11-2023> <10:47:48>  >>>> GENPT
 <Dec11-2023> <10:47:48>  Block Length=  73
 <Dec11-2023> <10:47:48>  >>>> PTBAS
 <Dec11-2023> <10:47:48>  >>>> CYCLE
 <Dec11-2023> <10:47:49>              |Error|         MaxErr       Wt(A-DIIS)
 <Dec11-2023> <10:47:49>      1      0.00000000      0.00000000
 <Dec11-2023> <10:47:49>      2     40.90708283      9.97740212    100.0
 <Dec11-2023> <10:47:49>      3     22.13776681      7.95655062    100.0
 <Dec11-2023> <10:47:49>      4     11.31925821      3.38837877    100.0
 <Dec11-2023> <10:47:49>      5      6.46835280      2.22297464    100.0
 <Dec11-2023> <10:47:49>      6      2.47249642      0.77035507    100.0
 <Dec11-2023> <10:47:49>      7      1.32688857      0.40987742    100.0
 <Dec11-2023> <10:47:49>      8      0.41726555      0.12310398    100.0
 <Dec11-2023> <10:47:49>      9      0.43634466      0.13597797    100.0
 <Dec11-2023> <10:47:49>     10      0.06429002      0.02168356     20.9
 <Dec11-2023> <10:47:49>     11      0.01986224      0.00661453      5.7
 <Dec11-2023> <10:47:49>     12      0.00170437      0.00055770      0.0
 <Dec11-2023> <10:47:49>     13      0.00001164      0.00000309      0.0
 <Dec11-2023> <10:47:49>     14      0.00000001      0.00000000      0.0
 <Dec11-2023> <10:47:50>  SCF converged
 <Dec11-2023> <10:47:50>     15      0.00000000      0.00000000      0.0
 <Dec11-2023> <10:47:50>  >>>> POPAN
 <Dec11-2023> <10:47:50>  >>>> DEBYE
 <Dec11-2023> <10:47:50>  NORMAL TERMINATION
 <Dec11-2023> <10:47:50>  END
 <Dec11-2023> <10:47:50>  ADF 2019  RunTime: Dec11-2023 10:47:50  Nodes: 1  Procs: 24
 <Dec11-2023> <10:47:51>  *** (NO TITLE) ***
 <Dec11-2023> <10:47:51>  RunType   : GEOMETRY OPTIMIZATION
 <Dec11-2023> <10:47:51>  Net Charge: -6 (Nuclei minus Electrons)
 <Dec11-2023> <10:47:51>  Spin polar: 0 (Spin_A minus Spin_B electrons)
 <Dec11-2023> <10:47:51>  Symmetry  : NOSYM
 <Dec11-2023> <10:47:51>  >>>> FRAGM
  Coordinates in Geometry Cycle 1
    Atom         X           Y           Z   (Angstrom)
    1.W        13.724575   11.100981    2.494729
    2.W        14.177460    8.188188    4.388532
    3.W        11.876236   10.217696    5.437531
    4.W         9.490504   11.330193    3.276195
    5.W        11.384808    8.785821    2.243794
    6.O        13.299886   11.738390    0.907745
    7.O        13.422612    9.166342    2.246609
    8.O        13.667401    6.496530    3.531023
    9.O        13.898008   10.095375    4.689748
   10.O        14.470387    7.611296    6.033545
   11.O        11.649726   10.715620    3.160302
   12.O        12.059662    8.446924    4.440973
   13.O        10.060415   10.387788    5.220473
   14.O         7.768268   11.071285    3.712752
   15.O         9.405222   11.698456    1.530483
   16.O         9.666944    9.156142    2.798262
   17.O        12.356840   11.952164    5.719836
   18.O        12.001662    9.536760    7.071766
   19.O        11.445415    6.975410    2.226556
   20.O        15.809974    8.263043    3.691696
   21.O        11.267975    9.153139    0.515368
   22.O        15.495038   11.072386    2.415480
   23.O        13.517716   12.695129    3.567146
   24.O         9.851953   12.935561    3.968041
   25.H        12.999388   12.484033    4.436841
   26.H        12.769369    6.585162    3.073173
 <Dec11-2023> <10:47:51>  >>>> CORORT
 <Dec11-2023> <10:47:51>  >>>> CLSMAT
 <Dec11-2023> <10:47:52>  >>>> ORTHON
 <Dec11-2023> <10:47:52>  >>>> GENPT
 <Dec11-2023> <10:47:52>  Block Length= 128
 <Dec11-2023> <10:47:52>  >>>> PTBAS
 <Dec11-2023> <10:47:55>  combining surface points...
 <Dec11-2023> <10:47:55>  combining surface points...
 <Dec11-2023> <10:47:55>  combining surface points...
 <Dec11-2023> <10:47:55>  >>>> CYCLE
 <Dec11-2023> <10:48:01>              |Error|         MaxErr       Wt(A-DIIS)
 <Dec11-2023> <10:48:01>      1     77.13204984      6.93513678
 <Dec11-2023> <10:48:05>      2      4.63610032      0.17651264    100.0
 <Dec11-2023> <10:48:10>      3      9.65711853      0.50749862    100.0
 <Dec11-2023> <10:48:15>      4      5.36240309      0.32784385    100.0
 <Dec11-2023> <10:48:20>      5      2.02697202      0.09595335     95.9
 <Dec11-2023> <10:48:25>      6      3.68764523      0.25560881    100.0
 <Dec11-2023> <10:48:29>      7      1.87078620      0.08224968     82.1
 <Dec11-2023> <10:48:34>      8      1.23839951      0.09972499     82.1
 <Dec11-2023> <10:48:38>      9      0.57921822      0.03582129     35.2
 <Dec11-2023> <10:48:43>     10      0.41901109      0.02358209     22.8
 <Dec11-2023> <10:48:47>     11      0.13630852      0.00746525      6.5
 <Dec11-2023> <10:48:51>     12      0.04346468      0.00259637      1.6
 <Dec11-2023> <10:48:56>     13      0.01587810      0.00090193      0.0
 <Dec11-2023> <10:49:00>     14      0.00313348      0.00017341      0.0
 <Dec11-2023> <10:49:05>     15      0.00271581      0.00023882      0.0
 <Dec11-2023> <10:49:09>     16      0.00066647      0.00005060      0.0
 <Dec11-2023> <10:49:13>     17      0.00066716      0.00004068      0.0
 <Dec11-2023> <10:49:18>     18      0.00029265      0.00001620      0.0
 <Dec11-2023> <10:49:22>     19      0.00015841      0.00000844      0.0
 <Dec11-2023> <10:49:27>     20      0.00006472      0.00000388      0.0
 <Dec11-2023> <10:49:31>     21      0.00001940      0.00000130      0.0
 <Dec11-2023> <10:49:35>     22      0.00000565      0.00000038      0.0
 <Dec11-2023> <10:49:37>  SCF converged
 <Dec11-2023> <10:49:40>     23      0.00000866      0.00000059      0.0
 <Dec11-2023> <10:49:41>  >>>> TOTEN
 <Dec11-2023> <10:49:46>  >>>> POPAN
 <Dec11-2023> <10:49:46>  >>>> DEBYE
 <Dec11-2023> <10:49:46>  >>>> ENGRAD
 <Dec11-2023> <10:49:58>  current energy                               -8.46640411 Hartree
 <Dec11-2023> <10:49:58>  energy change                      -8.46640411     0.00100000    F
 <Dec11-2023> <10:49:58>  constrained gradient max            0.00088490     0.00100000    T
 <Dec11-2023> <10:49:58>  constrained gradient rms            0.00022435     0.00066667    T
 <Dec11-2023> <10:49:58>  gradient max                        0.00088490
 <Dec11-2023> <10:49:58>  gradient rms                        0.00022435
 <Dec11-2023> <10:49:58>  cart. step max                      0.00289952     0.01000000    T
 <Dec11-2023> <10:49:58>  cart. step rms                      0.00054853     0.00666667    T
  Coordinates in Geometry Cycle 2
    Atom         X           Y           Z   (Angstrom)
    1.W        13.724489   11.101114    2.494682
    2.W        14.177126    8.188065    4.388371
    3.W        11.876060   10.218209    5.437529
    4.W         9.490200   11.329955    3.275919
    5.W        11.384704    8.785834    2.243861
    6.O        13.300049   11.738344    0.907570
    7.O        13.422522    9.166663    2.246475
    8.O        13.667251    6.496261    3.531100
    9.O        13.897731   10.095221    4.689627
   10.O        14.471376    7.612703    6.033704
   11.O        11.649752   10.715875    3.160055
   12.O        12.059610    8.447352    4.441059
   13.O        10.060186   10.387960    5.220196
   14.O         7.768048   11.070808    3.712509
   15.O         9.404892   11.697898    1.530148
   16.O         9.666967    9.155868    2.798444
   17.O        12.356353   11.952807    5.720257
   18.O        12.001278    9.536896    7.071527
   19.O        11.445474    6.975286    2.226503
   20.O        15.809450    8.262669    3.691035
   21.O        11.267262    9.153010    0.515459
   22.O        15.494944   11.072515    2.415848
   23.O        13.518571   12.695231    3.567686
   24.O         9.851444   12.935395    3.967813
   25.H        13.002288   12.483821    4.438768
   26.H        12.769417    6.584053    3.072452
 <Dec11-2023> <10:49:58>  >>>> CORORT
 <Dec11-2023> <10:49:59>  >>>> CLSMAT
 <Dec11-2023> <10:49:59>  >>>> ORTHON
 <Dec11-2023> <10:49:59>  >>>> GENPT
 <Dec11-2023> <10:49:59>  Block Length= 128
 <Dec11-2023> <10:49:59>  >>>> PTBAS
 <Dec11-2023> <10:50:02>  combining surface points...
 <Dec11-2023> <10:50:02>  combining surface points...
 <Dec11-2023> <10:50:02>  combining surface points...
 <Dec11-2023> <10:50:02>  >>>> CYCLE
 <Dec11-2023> <10:50:08>              |Error|         MaxErr       Wt(A-DIIS)
 <Dec11-2023> <10:50:08>      1      0.15265851      0.01012507
 <Dec11-2023> <10:50:13>      2      0.46227998      0.02073786    100.0
 <Dec11-2023> <10:50:18>      3      0.16298337      0.00922846    100.0
 <Dec11-2023> <10:50:22>      4      0.30555338      0.01621014    100.0
 <Dec11-2023> <10:50:27>      5      0.35420735      0.01903994    100.0
 <Dec11-2023> <10:50:31>      6      0.16033241      0.01271571     11.8
 <Dec11-2023> <10:50:36>      7      0.09097971      0.00623695      5.3
 <Dec11-2023> <10:50:40>      8      0.02135177      0.00149812      0.5
 <Dec11-2023> <10:50:45>      9      0.00881567      0.00069954      0.0
 <Dec11-2023> <10:50:49>     10      0.00514634      0.00040187      0.0
 <Dec11-2023> <10:50:53>     11      0.00213438      0.00012610      0.0
 <Dec11-2023> <10:50:58>     12      0.00060401      0.00003734      0.0
 <Dec11-2023> <10:51:02>     13      0.00035420      0.00001921      0.0
 <Dec11-2023> <10:51:07>     14      0.00016068      0.00000950      0.0
 <Dec11-2023> <10:51:11>     15      0.00005213      0.00000265      0.0
 <Dec11-2023> <10:51:15>     16      0.00003079      0.00000174      0.0
 <Dec11-2023> <10:51:20>     17      0.00000724      0.00000040      0.0
 <Dec11-2023> <10:51:22>  SCF converged
 <Dec11-2023> <10:51:24>     18      0.00001136      0.00000058      0.0
 <Dec11-2023> <10:51:26>  >>>> TOTEN
 <Dec11-2023> <10:51:31>  >>>> POPAN
 <Dec11-2023> <10:51:31>  >>>> DEBYE
 <Dec11-2023> <10:51:31>  >>>> ENGRAD
 <Dec11-2023> <10:51:43>  current energy                               -8.46640813 Hartree
 <Dec11-2023> <10:51:43>  energy change                      -0.00000401     0.00100000    T
 <Dec11-2023> <10:51:43>  constrained gradient max            0.00076404     0.00100000    T
 <Dec11-2023> <10:51:43>  constrained gradient rms            0.00016936     0.00066667    T
 <Dec11-2023> <10:51:43>  gradient max                        0.00076404
 <Dec11-2023> <10:51:43>  gradient rms                        0.00016936
 <Dec11-2023> <10:51:43>  cart. step max                      0.00171824     0.01000000    T
 <Dec11-2023> <10:51:43>  cart. step rms                      0.00066473     0.00666667    T
 <Dec11-2023> <10:51:43>  GEOMETRY CONVERGED
 <Dec11-2023> <10:51:43>  Calculating Energy Terms for Final Geometry
  Coordinates in Geometry Cycle 2
    Atom         X           Y           Z   (Angstrom)
    1.W        13.724489   11.101114    2.494682
    2.W        14.177126    8.188065    4.388371
    3.W        11.876060   10.218209    5.437529
    4.W         9.490200   11.329955    3.275919
    5.W        11.384704    8.785834    2.243861
    6.O        13.300049   11.738344    0.907570
    7.O        13.422522    9.166663    2.246475
    8.O        13.667251    6.496261    3.531100
    9.O        13.897731   10.095221    4.689627
   10.O        14.471376    7.612703    6.033704
   11.O        11.649752   10.715875    3.160055
   12.O        12.059610    8.447352    4.441059
   13.O        10.060186   10.387960    5.220196
   14.O         7.768048   11.070808    3.712509
   15.O         9.404892   11.697898    1.530148
   16.O         9.666967    9.155868    2.798444
   17.O        12.356353   11.952807    5.720257
   18.O        12.001278    9.536896    7.071527
   19.O        11.445474    6.975286    2.226503
   20.O        15.809450    8.262669    3.691035
   21.O        11.267262    9.153010    0.515459
   22.O        15.494944   11.072515    2.415848
   23.O        13.518571   12.695231    3.567686
   24.O         9.851444   12.935395    3.967813
   25.H        13.002288   12.483821    4.438768
   26.H        12.769417    6.584053    3.072452
 <Dec11-2023> <10:51:43>  >>>> CORORT
 <Dec11-2023> <10:51:43>  >>>> CLSMAT
 <Dec11-2023> <10:51:43>  >>>> ORTHON
 <Dec11-2023> <10:51:44>  >>>> GENPT
 <Dec11-2023> <10:51:44>  Block Length= 128
 <Dec11-2023> <10:51:44>  >>>> PTBAS
 <Dec11-2023> <10:51:47>  combining surface points...
 <Dec11-2023> <10:51:47>  combining surface points...
 <Dec11-2023> <10:51:47>  combining surface points...
 <Dec11-2023> <10:51:47>  >>>> CYCLE
 <Dec11-2023> <10:51:53>              |Error|         MaxErr       Wt(A-DIIS)
 <Dec11-2023> <10:51:53>      1      0.14573877      0.00686491
 <Dec11-2023> <10:51:58>      2      0.46204431      0.02752187    100.0
 <Dec11-2023> <10:52:02>      3      0.16297265      0.01042520    100.0
 <Dec11-2023> <10:52:07>      4      0.30581250      0.02119544    100.0
 <Dec11-2023> <10:52:11>      5      0.35237566      0.02416086    100.0
 <Dec11-2023> <10:52:16>      6      0.16083960      0.01240068     11.5
 <Dec11-2023> <10:52:21>      7      0.09009511      0.00761814      6.7
 <Dec11-2023> <10:52:25>      8      0.02211125      0.00134312      0.3
 <Dec11-2023> <10:52:29>      9      0.00882929      0.00062135      0.0
 <Dec11-2023> <10:52:34>     10      0.00510770      0.00038892      0.0
 <Dec11-2023> <10:52:38>     11      0.00214586      0.00013317      0.0
 <Dec11-2023> <10:52:43>     12      0.00060406      0.00003694      0.0
 <Dec11-2023> <10:52:47>     13      0.00035434      0.00002007      0.0
 <Dec11-2023> <10:52:52>     14      0.00015879      0.00000969      0.0
 <Dec11-2023> <10:52:56>     15      0.00005170      0.00000279      0.0
 <Dec11-2023> <10:53:00>     16      0.00003103      0.00000223      0.0
 <Dec11-2023> <10:53:05>     17      0.00000710      0.00000043      0.0
 <Dec11-2023> <10:53:06>  SCF converged
 <Dec11-2023> <10:53:09>     18      0.00001144      0.00000078      0.0
 <Dec11-2023> <10:53:13>  >>>> TOTEN
 <Dec11-2023> <10:53:26>  QTAIM: determining topology...
 <Dec11-2023> <10:53:38>  >>>> POPAN
 <Dec11-2023> <10:53:38>  >>>> DEBYE
 <Dec11-2023> <10:53:38>  >>>> AMETS
 <Dec11-2023> <10:53:38>  >>>> POPUL
 <Dec11-2023> <10:53:39>   Bond Energy          -8.46640813 a.u.
 <Dec11-2023> <10:53:39>   Bond Energy        -230.38268706 eV
 <Dec11-2023> <10:53:39>   Bond Energy       -5312.75       kcal/mol
 <Dec11-2023> <10:53:39>  >>>> ENHESS
 <Dec11-2023> <10:53:58>  === NUCLEUS:     1
 <Dec11-2023> <10:58:43>  === NUCLEUS:     2
 <Dec11-2023> <11:03:17>  === NUCLEUS:     3
 <Dec11-2023> <11:07:52>  === NUCLEUS:     4
 <Dec11-2023> <11:12:25>  === NUCLEUS:     5
 <Dec11-2023> <11:16:59>  === NUCLEUS:     6
 <Dec11-2023> <11:21:07>  === NUCLEUS:     7
 <Dec11-2023> <11:25:22>  === NUCLEUS:     8
 <Dec11-2023> <11:29:36>  === NUCLEUS:     9
 <Dec11-2023> <11:33:51>  === NUCLEUS:    10
 <Dec11-2023> <11:37:59>  === NUCLEUS:    11
 <Dec11-2023> <11:42:14>  === NUCLEUS:    12
 <Dec11-2023> <11:46:28>  === NUCLEUS:    13
 <Dec11-2023> <11:50:36>  === NUCLEUS:    14
 <Dec11-2023> <11:54:38>  === NUCLEUS:    15
 <Dec11-2023> <11:58:39>  === NUCLEUS:    16
 <Dec11-2023> <12:02:53>  === NUCLEUS:    17
 <Dec11-2023> <12:07:07>  === NUCLEUS:    18
 <Dec11-2023> <12:11:15>  === NUCLEUS:    19
 <Dec11-2023> <12:15:22>  === NUCLEUS:    20
 <Dec11-2023> <12:19:30>  === NUCLEUS:    21
 <Dec11-2023> <12:23:31>  === NUCLEUS:    22
 <Dec11-2023> <12:27:32>  === NUCLEUS:    23
 <Dec11-2023> <12:31:45>  === NUCLEUS:    24
 <Dec11-2023> <12:36:04>  === NUCLEUS:    25
 <Dec11-2023> <12:40:16>  === NUCLEUS:    26
 <Dec11-2023> <12:44:22>  >>>> CALC_HESS_PMAT
 <Dec11-2023> <12:45:11>  >>>> CALC_HESS_WMAT
 <Dec11-2023> <12:45:18>  NORMAL TERMINATION
 <Dec11-2023> <12:45:18>  END
