
 *******************************************************************************
 *                                                                             *
 *  -------------------------------------                                      *
 *   Amsterdam Density Functional  (ADF)         2019                          *
 *  -------------------------------------                                      *
 *                                               r79301 2019-11-09             *
 *                                                                             *
 *                                                                             *
 *                            =====================                            *
 *                            |                   |                            *
 *                            |     D I R A C     |                            *
 *                            |                   |                            *
 *                            =====================                            *
 *                                                                             *
 *                                                                             *
 *   Online information and documentation:  https://www.scm.com/support/       *
 *   E-mail:  support@scm.com   info@scm.com                                   *
 *                                                                             *
 *   Scientific publications using ADF results must be properly referenced     *
 *   See the User Manuals (or the web site) for recommended citations          *
 *   The terms and conditions of the End User License Agreement apply to       *
 *   the use of ADF, https://www.scm.com/license-terms/                        *
 *                                                                             *
 **********************  x86_64_linux_intel / intelmpi  ************************
 
 
 
  
 DIRAC 2019  RunTime: Oct12-2020 07:34:55  Nodes: 1  Procs: 1

 Temporary files are created in /scratch/kid_0.1232199086 (0x58465342)

1
 HYDROGEN ATOM RELATIVISTIC, Point Nuc, A and c from libtc   
 N J RN H ZN XION ANUC CLIGHT
 5000    1100.00000000197.36710137  1.00000000  0.00000000    1.007825  0.1370360E+03
  PH   PHI     EPS        DEL        DELRVR
  0.30  0.30     2500.00  0.00001000  0.00001000
 IDIRC  NC1  NDEBU NPRIN  IPUN IRCOR IWCOR
   1   300     0     0     0     0     0
   XALPHA      XLATTER      RNUC
  0.70000000  0.00000000  0.00000000 Point Charge
   XN   XL   XJ      XE          XZ      XDELL
  1.0  0.0  0.5      -1.000       1.000     0.00000
 ICORP=  0  NPCL=  0  DEMP=0.00  PEPS=0.000000
 R(1)=  0.1000000E-08 D=  0.1005080E+01 RNUC=  0.0000000E+00
 converged at cycle   32  DENSITY AVERAGING    0.2400
  MAXIMUM ERROR IN R.V(R) IS   0.79874357E-05
 Q,EY,EV,EZ,ESUM,ETOT,RHO  0.100000E+01 -0.266614E+00 -0.619969E+00 -0.910779E+00 -0.203940E+00 -0.415998E+00  0.337036E-17


 DIRAC CALCULATION
1                    HYDROGEN ATOM RELATIVISTIC, Point Nuc, A and c from libtc


 EXCHANGE COEFFICIENT=  0.7000000           TAIL CORRECTION=  0.           NUCLEAR RADIUS=  0.000E+00
0                       ORBITAL    N    L    J     ELECTRONS     EIGENVALUE                DELTA OF EIGENV.

                          1S1/2  1.0  0.0  0.5     1.000       -0.2039397E+00                 0.2720093E-06


                                        NUCLEAR CHARGE=    1.000000
                            INTEGRAL OF CHARGE DENSITY=    1.000000
                           SUM OF THE ORBITAL ENERGIES=     -0.2039
                                          TOTAL ENERGY=     -0.4160
                                        KINETIC ENERGY=      0.4160
                             NUCLEAR ATTRACTION ENERGY=     -0.9108
                             ELECTRON REPULSION ENERGY=      0.2787
                                       EXCHANGE ENERGY=     -0.2000

 *******************************************************************************

                             D I R A C   E X I T
 NORMAL TERMINATION



 =================
 Timing Statistics
 =================
  
 Total Used :                     CPU=        0.06      System=        0.00     Elapsed=        0.07

 Calls  Section                     ( Mean, Percentage )
 ---------------------------------------------------------------------------------------------------
     2  ><      ................      0.00    0.00             0.00    0.00             0.00    0.01
     1  EXIT PROCEDURE .........      0.06  100.00             0.00  100.00             0.07   99.99


 Currently Open Files (EXIT00)
 ====================

 Unit    Access Format  Status   Type       Ident (file)
 -------------------------------------------------------
   3      SEQ    FORM   TRANSP  NORMAL      LOGFILE
                                          ( logfile )
 
Create H   file=TZP-H
XC
  GGA PBE
End
relativistic ZORA
Corepotentials t12.rel
End

 *******************************************************************************
 *                                                                             *
 *  -------------------------------------                                      *
 *   Amsterdam Density Functional  (ADF)         2019                          *
 *  -------------------------------------                                      *
 *                                               r79301 2019-11-09             *
 *                                                                             *
 *                                                                             *
 *                              =================                              *
 *                              |               |                              *
 *                              |     A D F     |                              *
 *                              |               |                              *
 *                              =================                              *
 *                                                                             *
 *                                                                             *
 *   Online information and documentation:  https://www.scm.com/support/       *
 *   E-mail:  support@scm.com   info@scm.com                                   *
 *                                                                             *
 *   Scientific publications using ADF results must be properly referenced     *
 *   See the User Manuals (or the web site) for recommended citations          *
 *   The terms and conditions of the End User License Agreement apply to       *
 *   the use of ADF, https://www.scm.com/license-terms/                        *
 *                                                                             *
 **********************  x86_64_linux_intel / intelmpi  ************************
 
 
 
  
 ADF 2019  RunTime: Oct12-2020 07:34:55  Nodes: 1  Procs: 1

 Temporary files are created in /scratch/kid_0.259629068 (0x58465342)

 Hydrogen (TZP)



 ===========================
 A T T A C H E D   F I L E S
 ===========================
  
 CREATE - Data File:    TZP-H
                        Hydrogen (TZP)
 Core Potentials:
         file : t12.rel



 ===============================
 M O D E L   P A R A M E T E R S
 ===============================
  
 DENSITY FUNCTIONAL POTENTIAL (scf)
    LDA:                               PW92                                    == Not Default ==
    Gradient Corrections:              PBEc PBEx                               == Not Default ==

 SPIN  (restricted / unrestr.)
    Molecule:                          Restricted                               

 OTHER ASPECTS
    Relativistic Corrections:          scalar (ZORA,MAPA)                      == Not Default ==

    Nuclear Charge Density Model:      Point Charge Nuclei                      
    Core Treatment:                    Frozen Orbital(s)                        

    Hyperfine or Zeeman Interaction:   ---                                      



 =====================================
 S Y M M E T R Y ,   E L E C T R O N S
 =====================================
  
 Symmetry: ATOM

 Irreducible Representations, including subspecies
 -------------------------------------------------
 S
 P:x  P:y  P:z
 D:z2  D:x2-y2  D:xy  D:xz  D:yz
 F:z3  F:z  F:xyz  F:z2x  F:z2y  F:x  F:y


 Configuration of Valence Electrons
 ==================================

          Occupation Numbers
          -------------------------------------------------
 S        1
 P        0
 D        0
 F        0
          -------------------------------------------------

 Total:   1

 Net Charge: 0 (Nuclei minus Electrons)

 Preset values for MO occupations will be applied through SCF cycle no. 1000000
 Thereafter, the program will assign electrons to MOs that are spatially
 similar to the occupied MOs in a "reference" cycle ("KeepOrbitals").
 The reference cycle is always the PREVIOUS cycle: it will evolve with
 the SCF procedure.



 ================================
 (Slater-type)  F U N C T I O N S  ***  (Basis and Fit)  ***
 ================================
  

 Atom Type    1  (H)
 ==============

 Valence Basis Sets:   4
 -----------------------
   1 S    0.690000
   1 S    0.920000
   1 S    1.580000
   2 P    1.250000


 BAS: List of all Elementary Cartesian Basis Functions
 =====================================================

 The numbering in the list below (to the right of the function characteristics) is referred
 to in print-outs of MO eigenvectors and Mulliken populations in the BAS representation
 (as contrasted to the SFO representation).

 Notes:
 1. The functions are characterized by a polynomial prefactor (powers of x,y,z and r) and
    an exponential decay factor alpha.
 2. Since the basis sets are specific for an atom TYPE, the individual functions occur on
    all atoms of that type.
 3. The word 'Core' in the left margin signals that it is a Core Function (CF) : not a
    degree of freedom in the valence set, but only used to ensure orthogonalization of
    the other valence basis functions on the frozen Core Orbitals.


 (power of) X  Y  Z  R     Alpha  on Atom
            ==========     =====     ==========

 H                                    1
                                  ---------------------------------------------------------------------------
            0  0  0  0     0.690      1
            0  0  0  0     0.920      2
            0  0  0  0     1.580      3
            1  0  0  0     1.250      4
            0  1  0  0     1.250      5
            0  0  1  0     1.250      6

 Total number of charge fitting functions (nprimf)        50
 Total number of Cartesian basis functions (naos)          6
 Total number of Cartesian core functions  (ncos)          0



 BAS: List of all Elementary Cartesian Basis Functions
 =====================================================

 The numbering in the list below (to the right of the function characteristics) is referred
 to in print-outs of MO eigenvectors and Mulliken populations in the BAS representation
 (as contrasted to the SFO representation).

 Notes:
 1. The functions are characterized by a polynomial prefactor (powers of x,y,z and r) and
    an exponential decay factor alpha.
 2. Since the basis sets are specific for an atom TYPE, the individual functions occur on
    all atoms of that type.
 3. The word 'Core' in the left margin signals that it is a Core Function (CF) : not a
    degree of freedom in the valence set, but only used to ensure orthogonalization of
    the other valence basis functions on the frozen Core Orbitals.


 (power of) X  Y  Z  R     Alpha  on Atom
            ==========     =====     ==========

 H                                    1
                                  ---------------------------------------------------------------------------
            0  0  0  0     0.690      1
            0  0  0  0     0.920      2
            0  0  0  0     1.580      3
            1  0  0  0     1.250      4
            0  1  0  0     1.250      5
            0  0  1  0     1.250      6
1
 ***************************************************************************************************



                                              ***********************
                                              *  T E C H N I C A L  *
                                              ***********************
  



 =============================================================
 P A R A L L E L I Z A T I O N  and  V E C T O R I Z A T I O N
 =============================================================
  
 Nr of parallel processes:                                1
 Maximum vector length in NumInt loops:                 128



 =====================
 S C F   U P D A T E S
 =====================
  
 Max. nr. of cycles:                               300
 Convergence criterion:                              0.0000000100
   secondary criterion:                              0.0000000100

 Mix parameter (when DIIS does not apply):           0.2000000000
 Special mix parameter for the first cycle:          1.0000000000
 Mixed ADIIS+SDIIS will be used                  
    Max number of expansion vectors:                10
    Pure ADIIS when Max([F,P]) is above              0.1000000000
    Pure SDIIS when Max([F,P]) is below              0.0010000000
 Automatic ElectronSmearing (in case of problematic SCF convergence) disabled



 =================
 P R E C I S I O N  ***  (General: NumInt, NeglectFunctionTails, ...)  ***
 =================
  

 NumInt:           Target precision:                12.0000000000
 -------           Initial precision:               10.0000000000
                   Min. precision (optimization):   10.0000000000

 Neglect Functions:          Basis functions:        0.1000000000E-13
 ------------------          Fit functions:          0.1000000000E-13



 ===========================
 L I N E A R   S C A L I N G
 ===========================
  

 Cut-off radii density fit:                        0.1000000000E-97
 Overlap cut-off criterion AO matrix elements:     0.1000000000E-97
 Cut-offs for Coulomb potential and fitted density:0.1000000000E-97
 Cut-off criterion for Coulomb multipole terms:    0.1000000000E-97
 Progressive Convergence parameter:                 0.000000000    
1
 ***************************************************************************************************



                                            ***************************
                                            *  C O M P U T A T I O N  *
                                            ***************************
  

 Number of elements of the density matrix on this node (used, total):        21        21



 ===========================================
 Numerical Integration : Fuzzy Cells (Becke)
 ===========================================
  
 Becke grid quality: VERYGOOD       
  
 Lebedev angular grid order:             min:  13 max:  41
 Nr. of radial points:                   min:  64 max:  64

 Total nr. of points:         64
 Nr. of blocks:                1
 Block length:                64
 Nr. of dummy points:          0


 Test of Precision of the Numerical Integration Grid
 ===================================================

 Integral of the Total Core Density:                   0.00000000000000



 ========================
 Density Fitting (zlmFit)
 ========================
  
 ZlmFit Fit Quality: VERYGOOD       
  
 Max L-expansion:                        min:   0 max:   0
 Nr. of radial interpolation points:     min: 120 max: 120



 =====
 S C F  ***  ScaSCF  ***
 =====
  

 CYCLE    1
 SCF Error: norm([F,P])=      0.000000000000, max([F,P])=      0.000000000000
 orbitals (Q,E):
 ---------------
 S :1...3            ( 1.00    -0.5000)  ( 0.00    -0.0900)  ( 0.00     1.2936)
 P :1...1            ( 0.00     0.1562)

 CYCLE    2
 SCF Error: norm([F,P])=      0.031537872292, max([F,P])=      0.030110494752
 orbitals (Q,E):
 ---------------
 S :1...2            ( 1.00    -0.2218)  ( 0.00     0.1019)
 P :1...1            ( 0.00     0.4189)

 CYCLE    3
  SDIIS (wt  0.000):  0.1996  0.8004
 A-DIIS (wt  1.000):  0.0000  1.0000
  DIIS coefficients:  0.0000  1.0000
 SCF Error: norm([F,P])=      0.008617989401, max([F,P])=      0.008343029399
 orbitals (Q,E):
 ---------------
 S :1...2            ( 1.00    -0.2422)  ( 0.00     0.0889)
 P :1...1            ( 0.00     0.4024)

 CYCLE    4
  SDIIS (wt  0.993):  0.1666  0.8334
 A-DIIS (wt  0.007):  0.0000  1.0000
  DIIS coefficients:  0.1654  0.8346
 SCF Error: norm([F,P])=      0.001732350026, max([F,P])=      0.001718616814
 orbitals (Q,E):
 ---------------
 S :1...2            ( 1.00    -0.2385)  ( 0.00     0.0908)
 P :1...1            ( 0.00     0.4054)

 CYCLE    5
  SDIIS (wt  1.000):  0.0236  0.9764
  DIIS coefficients:  0.0236  0.9764
 SCF Error: norm([F,P])=      0.000043673449, max([F,P])=      0.000039769875
 orbitals (Q,E):
 ---------------
 S :1...2            ( 1.00    -0.2386)  ( 0.00     0.0908)
 P :1...1            ( 0.00     0.4054)

 CYCLE    6
  SDIIS (wt  1.000): -0.0577  1.0577
  DIIS coefficients: -0.0577  1.0577
 SCF Error: norm([F,P])=      0.000002383805, max([F,P])=      0.000002158128
 orbitals (Q,E):
 ---------------
 S :1...2            ( 1.00    -0.2386)  ( 0.00     0.0908)
 P :1...1            ( 0.00     0.4054)

 CYCLE    7
  SDIIS (wt  1.000): -0.0032  1.0032
  DIIS coefficients: -0.0032  1.0032
 SCF Error: norm([F,P])=      0.000000007721, max([F,P])=      0.000000007228
 orbitals (Q,E):
 ---------------
 S :1...2            ( 1.00    -0.2386)  ( 0.00     0.0908)
 P :1...1            ( 0.00     0.4054)

 SCF CONVERGED

 CYCLE    8
1
 ***************************************************************************************************



                                                *******************
                                                *  R E S U L T S  *
                                                *******************
  
 *** Using FIT density in Focky
  SDIIS (wt  1.000):  0.0192  0.9808
  DIIS coefficients:  0.0192  0.9808
 SCF Error: norm([F,P])=      0.000000000151, max([F,P])=      0.000000000141

 Scaled ZORA Orbital Energies, per Irrep and Spin:
 =================================================
                        Occup              E (au)              E (eV)       Diff (eV) with prev. cycle
                        -----      --------------------        ------       --------------------------
 S
               1        1.000     -0.23861775226993E+00        -6.493               7.43E-09
               2        0.000      0.90791701709251E-01         2.471
               3        0.000      0.15217530108908E+01        41.409
 P
               1        0.000      0.40537978060393E+00        11.031


 Partially Occupied:
               1 S                -0.23861775226993E+00
  
 LUMO :        2 S                 0.90791701709251E-01
  


 Orbital Energies, all Irreps
 ========================================

 Irrep        no.  (spin)   Occup              E (au)                E (eV)
 ---------------------------------------------------------------------------
 S             1             1.00       -0.23861775226993E+00        -6.4931
 S             2             0.00        0.90791701709251E-01         2.4706
 P             1             0.00        0.40537978060393E+00        11.0309
 S             3             0.00        0.15217530108908E+01        41.4090


 All Electron Calculation, thus no Orbital Energies of the Core Orbitals are calculated



 =======================================
 M U L L I K E N   P O P U L A T I O N S
 =======================================
  
 The survey below gives for each atom:
 a) the total charge (Z minus electrons)
 b) the net spin polarization (nr of electrons spin-A minus spin-B)
 c) for each spin the atomic electron valence density (integrated) per L-value.

 Atom              Charge    Spin density          S         P         D         F
 ----              ------    ------------       ------    ------    ------    ------
 1 H              -0.0000                       1.0000    0.0000    0.0000    0.0000

 Populations of individual BAS functions
 ----------------------------------------
 1 H            0.2104  0.6788  0.1107  0.0000  0.0000  0.0000

 Gross Charges per Atom (Z minus electrons)
 ==========================================
            -0.0000
 Net Total: -0.00000000



 =======================================================================
 Electrostatic potential at the Nuclei due to electrons and other nuclei
 =======================================================================
  
         Atom                  Potential
         ----                  ---------
     1)   H                   0.94468022
 
 
 ========================
 No memory problems found
 ========================
 
 Maximum number of active allocate calls:         306
 
 *******************************************************************************

                             A D F   E X I T
 NORMAL TERMINATION



 =================
 Timing Statistics
 =================
  
 Total Used :                     CPU=        0.34      System=        0.01     Elapsed=        0.39

 Calls  Section                     ( Mean, Percentage )
 ---------------------------------------------------------------------------------------------------
     3  ><      ................      0.00    1.16             0.00    0.00             0.00    1.11
     1  INIT    ................      0.07   20.93             0.00    0.00             0.08   21.03
     1  GEOMET  ................      0.01    3.49             0.01   66.66             0.02    6.11
     1  INPUTA  ................      0.00    1.16             0.00    0.00             0.00    0.87
     1  MAINSY  ................      0.00    1.16             0.00   33.34             0.01    3.24
     1  SYMFIT  ................      0.00    1.16             0.00    0.00             0.00    0.42
     1  CORORT  ................      0.00    0.00             0.00    0.00             0.00    0.32
     1  SYMORB  ................      0.00    0.00             0.00    0.00             0.00    0.18
     1  CLSMAT  ................      0.00    1.16             0.00    0.00             0.01    1.34
     1  ORTHON  ................      0.01    2.33             0.00    0.00             0.00    1.22
     1  GENPT   ................      0.01    3.49             0.00    0.00             0.01    3.22
     1  PTBAS   ................      0.00    1.16             0.00    0.00             0.01    1.33
     8  FOCKY   ................      0.02   45.35             0.00    0.00             0.02   44.10
     8  FOCKTR  ................      0.00    2.33             0.00    0.00             0.00    1.25
     8  SDIIS   ................      0.00    6.98             0.00    0.00             0.00    5.59
     1  COREPS  ................      0.01    3.49             0.00    0.00             0.01    3.63
     1  POPAN   ................      0.00    1.16             0.00    0.00             0.00    1.22
     1  DEBYE   ................      0.00    0.00             0.00    0.00             0.00    0.48
     1  EXIT PROCEDURE .........      0.01    3.49             0.00    0.00             0.01    3.33


 Currently Open Files (EXIT00)
 ====================

 Unit    Access Format  Status   Type       Ident (file)
 -------------------------------------------------------
   3      SEQ    FORM   TRANSP  NORMAL      LOGFILE
                                          ( logfile )

 ***************************************************************************************************
 (LOGFILE)
 <Oct12-2020> <07:34:55>  DIRAC 2019  RunTime: Oct12-2020 07:34:55  Nodes: 1  Procs: 1
 <Oct12-2020> <07:34:55>  NORMAL TERMINATION
 <Oct12-2020> <07:34:55>  END
 <Oct12-2020> <07:34:55>  ADF 2019  RunTime: Oct12-2020 07:34:55  Nodes: 1  Procs: 1
 <Oct12-2020> <07:34:55>  Hydrogen (TZP)
 <Oct12-2020> <07:34:55>  RunType   : CREATE
 <Oct12-2020> <07:34:55>  Net Charge: 0 (Nuclei minus Electrons)
 <Oct12-2020> <07:34:55>  Symmetry  : ATOM
  Coordinates
    Atom         X           Y           Z   (Angstrom)
    1.H         0.000000    0.000000    0.000000
 <Oct12-2020> <07:34:55>  >>>> CORORT
 <Oct12-2020> <07:34:55>  >>>> CLSMAT
 <Oct12-2020> <07:34:55>  >>>> ORTHON
 <Oct12-2020> <07:34:55>  >>>> GENPT
 <Oct12-2020> <07:34:55>  Block Length=  64
 <Oct12-2020> <07:34:55>  >>>> PTBAS
 <Oct12-2020> <07:34:55>  >>>> CYCLE
 <Oct12-2020> <07:34:55>              |Error|         MaxErr       Wt(A-DIIS)
 <Oct12-2020> <07:34:55>      1      0.00000000      0.00000000
 <Oct12-2020> <07:34:55>      2      0.03153787      0.03011049
 <Oct12-2020> <07:34:55>      3      0.00861799      0.00834303    100.0
 <Oct12-2020> <07:34:55>      4      0.00173235      0.00171862      0.7
 <Oct12-2020> <07:34:55>      5      0.00004367      0.00003977      0.0
 <Oct12-2020> <07:34:55>      6      0.00000238      0.00000216      0.0
 <Oct12-2020> <07:34:55>      7      0.00000001      0.00000001      0.0
 <Oct12-2020> <07:34:55>  SCF converged
 <Oct12-2020> <07:34:55>      8      0.00000000      0.00000000      0.0
 <Oct12-2020> <07:34:56>  >>>> POPAN
 <Oct12-2020> <07:34:56>  >>>> DEBYE
 <Oct12-2020> <07:34:56>  NORMAL TERMINATION
 <Oct12-2020> <07:34:56>  END

 *******************************************************************************
 *                                                                             *
 *  -------------------------------------                                      *
 *   Amsterdam Density Functional  (ADF)         2019                          *
 *  -------------------------------------                                      *
 *                                               r79301 2019-11-09             *
 *                                                                             *
 *                                                                             *
 *                            =====================                            *
 *                            |                   |                            *
 *                            |     D I R A C     |                            *
 *                            |                   |                            *
 *                            =====================                            *
 *                                                                             *
 *                                                                             *
 *   Online information and documentation:  https://www.scm.com/support/       *
 *   E-mail:  support@scm.com   info@scm.com                                   *
 *                                                                             *
 *   Scientific publications using ADF results must be properly referenced     *
 *   See the User Manuals (or the web site) for recommended citations          *
 *   The terms and conditions of the End User License Agreement apply to       *
 *   the use of ADF, https://www.scm.com/license-terms/                        *
 *                                                                             *
 **********************  x86_64_linux_intel / intelmpi  ************************
 
 
 
  
 DIRAC 2019  RunTime: Oct12-2020 07:34:56  Nodes: 1  Procs: 1

 Temporary files are created in /scratch/kid_0.1550911936 (0x58465342)

1
 OXYGEN ATOM 1s CORE RELATIVISTIC, Point Nuc, A and c from li
 N J RN H ZN XION ANUC CLIGHT
 5000    4100.00000000197.36710137  8.00000000  0.00000000   15.994914  0.1370360E+03
  PH   PHI     EPS        DEL        DELRVR
  0.30  0.30     2500.00  0.00001000  0.00001000
 IDIRC  NC1  NDEBU NPRIN  IPUN IRCOR IWCOR
   1   300     0     0     0     0     1
   XALPHA      XLATTER      RNUC
  0.70000000  0.00000000  0.00000000 Point Charge
   XN   XL   XJ      XE          XZ      XDELL
  1.0  0.0  0.5      -5.000       2.000     0.00000
  2.0  0.0  0.5      -1.000       2.000     0.00000
  2.0  1.0  0.5      -1.000       2.000     0.00000
  2.0  1.0  1.5      -1.000       2.000     0.00000
 ICORP=  0  NPCL=  0  DEMP=0.00  PEPS=0.000000
 R(1)=  0.1000000E-08 D=  0.1005080E+01 RNUC=  0.0000000E+00
 converged at cycle   28  DENSITY AVERAGING    0.2400
  MAXIMUM ERROR IN R.V(R) IS   0.81125670E-05
 Q,EY,EV,EZ,ESUM,ETOT,RHO  0.800000E+01 -0.101247E+02 -0.114961E+03 -0.177573E+03 -0.405053E+02 -0.743427E+02  0.414766E-14


 DIRAC CALCULATION
1                    OXYGEN ATOM 1s CORE RELATIVISTIC, Point Nuc, A and c from libtc


 EXCHANGE COEFFICIENT=  0.7000000           TAIL CORRECTION=  0.           NUCLEAR RADIUS=  0.000E+00
0                       ORBITAL    N    L    J     ELECTRONS     EIGENVALUE                DELTA OF EIGENV.

                          1S1/2  1.0  0.0  0.5     2.000       -0.1880014E+02                 0.7264358E-06
                          2S1/2  2.0  0.0  0.5     2.000       -0.8412236E+00                 0.5932752E-05
                          2P1/2  2.0  1.0  0.5     2.000       -0.3063203E+00                 0.5998471E-05
                          2P3/2  2.0  1.0  1.5     2.000       -0.3049609E+00                 0.5986971E-05


                                        NUCLEAR CHARGE=    8.000000
                            INTEGRAL OF CHARGE DENSITY=    8.000000
                           SUM OF THE ORBITAL ENERGIES=    -40.5053
                                          TOTAL ENERGY=    -74.3427
                                        KINETIC ENERGY=     74.4552
                             NUCLEAR ATTRACTION ENERGY=   -177.5730
                             ELECTRON REPULSION ENERGY=     36.3686
                                       EXCHANGE ENERGY=     -7.5935

 *******************************************************************************

                             D I R A C   E X I T
 NORMAL TERMINATION



 =================
 Timing Statistics
 =================
  
 Total Used :                     CPU=        0.10      System=        0.00     Elapsed=        0.12

 Calls  Section                     ( Mean, Percentage )
 ---------------------------------------------------------------------------------------------------
     2  ><      ................      0.00    0.00             0.00    0.00             0.00    0.01
     1  EXIT PROCEDURE .........      0.10  100.00             0.00  100.00             0.12   99.99


 Currently Open Files (EXIT00)
 ====================

 Unit    Access Format  Status   Type       Ident (file)
 -------------------------------------------------------
   3      SEQ    FORM   TRANSP  NORMAL      LOGFILE
                                          ( logfile )
 
Create O   file=TZP-O.1s
XC
  GGA PBE
End
relativistic ZORA
Corepotentials t12.rel
End

 *******************************************************************************
 *                                                                             *
 *  -------------------------------------                                      *
 *   Amsterdam Density Functional  (ADF)         2019                          *
 *  -------------------------------------                                      *
 *                                               r79301 2019-11-09             *
 *                                                                             *
 *                                                                             *
 *                              =================                              *
 *                              |               |                              *
 *                              |     A D F     |                              *
 *                              |               |                              *
 *                              =================                              *
 *                                                                             *
 *                                                                             *
 *   Online information and documentation:  https://www.scm.com/support/       *
 *   E-mail:  support@scm.com   info@scm.com                                   *
 *                                                                             *
 *   Scientific publications using ADF results must be properly referenced     *
 *   See the User Manuals (or the web site) for recommended citations          *
 *   The terms and conditions of the End User License Agreement apply to       *
 *   the use of ADF, https://www.scm.com/license-terms/                        *
 *                                                                             *
 **********************  x86_64_linux_intel / intelmpi  ************************
 
 
 
  
 ADF 2019  RunTime: Oct12-2020 07:34:56  Nodes: 1  Procs: 1

 Temporary files are created in /scratch/kid_0.431833970 (0x58465342)

 Oxygen (TZP, 1s frozen)



 ===========================
 A T T A C H E D   F I L E S
 ===========================
  
 CREATE - Data File:    TZP-O.1s
                        Oxygen (TZP, 1s frozen)
 Core Potentials:
         file : t12.rel



 ===============================
 M O D E L   P A R A M E T E R S
 ===============================
  
 DENSITY FUNCTIONAL POTENTIAL (scf)
    LDA:                               PW92                                    == Not Default ==
    Gradient Corrections:              PBEc PBEx                               == Not Default ==

 SPIN  (restricted / unrestr.)
    Molecule:                          Restricted                               

 OTHER ASPECTS
    Relativistic Corrections:          scalar (ZORA,MAPA)                      == Not Default ==

    Nuclear Charge Density Model:      Point Charge Nuclei                      
    Core Treatment:                    Frozen Orbital(s)                        

    Hyperfine or Zeeman Interaction:   ---                                      



 =====================================
 S Y M M E T R Y ,   E L E C T R O N S
 =====================================
  
 Symmetry: ATOM

 Irreducible Representations, including subspecies
 -------------------------------------------------
 S
 P:x  P:y  P:z
 D:z2  D:x2-y2  D:xy  D:xz  D:yz
 F:z3  F:z  F:xyz  F:z2x  F:z2y  F:x  F:y


 Configuration of Valence Electrons
 ==================================

          Occupation Numbers
          -------------------------------------------------
 S        2
 P        4
 D        0
 F        0
          -------------------------------------------------

 Total:   6

 Net Charge: 0 (Nuclei minus Electrons)

 Preset values for MO occupations will be applied through SCF cycle no. 1000000
 Thereafter, the program will assign electrons to MOs that are spatially
 similar to the occupied MOs in a "reference" cycle ("KeepOrbitals").
 The reference cycle is always the PREVIOUS cycle: it will evolve with
 the SCF procedure.



 ================================
 (Slater-type)  F U N C T I O N S  ***  (Basis and Fit)  ***
 ================================
  

 Atom Type    1  (O)
 ==============

 Valence Basis Sets:   8
 -----------------------
   1 S    7.360000
   2 S    1.720000
   2 S    2.880000
   2 S    7.580000
   2 P    1.120000
   2 P    2.080000
   2 P    4.080000
   3 D    2.000000

 Frozen Core Shells
 ------------------
    S:  1


 BAS: List of all Elementary Cartesian Basis Functions
 =====================================================

 The numbering in the list below (to the right of the function characteristics) is referred
 to in print-outs of MO eigenvectors and Mulliken populations in the BAS representation
 (as contrasted to the SFO representation).

 Notes:
 1. The functions are characterized by a polynomial prefactor (powers of x,y,z and r) and
    an exponential decay factor alpha.
 2. Since the basis sets are specific for an atom TYPE, the individual functions occur on
    all atoms of that type.
 3. The word 'Core' in the left margin signals that it is a Core Function (CF) : not a
    degree of freedom in the valence set, but only used to ensure orthogonalization of
    the other valence basis functions on the frozen Core Orbitals.


 (power of) X  Y  Z  R     Alpha  on Atom
            ==========     =====     ==========

 O                                    1
                                  ---------------------------------------------------------------------------
    Core    0  0  0  0     7.360      1
            0  0  0  1     1.720      2
            0  0  0  1     2.880      3
            0  0  0  1     7.580      4
            1  0  0  0     1.120      5
            0  1  0  0     1.120      6
            0  0  1  0     1.120      7
            1  0  0  0     2.080      8
            0  1  0  0     2.080      9
            0  0  1  0     2.080     10
            1  0  0  0     4.080     11
            0  1  0  0     4.080     12
            0  0  1  0     4.080     13
            2  0  0  0     2.000     14
            1  1  0  0     2.000     15
            1  0  1  0     2.000     16
            0  2  0  0     2.000     17
            0  1  1  0     2.000     18
            0  0  2  0     2.000     19

 Total number of charge fitting functions (nprimf)        82
 Total number of Cartesian basis functions (naos)         19
 Total number of Cartesian core functions  (ncos)          1



 BAS: List of all Elementary Cartesian Basis Functions
 =====================================================

 The numbering in the list below (to the right of the function characteristics) is referred
 to in print-outs of MO eigenvectors and Mulliken populations in the BAS representation
 (as contrasted to the SFO representation).

 Notes:
 1. The functions are characterized by a polynomial prefactor (powers of x,y,z and r) and
    an exponential decay factor alpha.
 2. Since the basis sets are specific for an atom TYPE, the individual functions occur on
    all atoms of that type.
 3. The word 'Core' in the left margin signals that it is a Core Function (CF) : not a
    degree of freedom in the valence set, but only used to ensure orthogonalization of
    the other valence basis functions on the frozen Core Orbitals.


 (power of) X  Y  Z  R     Alpha  on Atom
            ==========     =====     ==========

 O                                    1
                                  ---------------------------------------------------------------------------
    Core    0  0  0  0     7.360      1
            0  0  0  1     1.720      2
            0  0  0  1     2.880      3
            0  0  0  1     7.580      4
            1  0  0  0     1.120      5
            0  1  0  0     1.120      6
            0  0  1  0     1.120      7
            1  0  0  0     2.080      8
            0  1  0  0     2.080      9
            0  0  1  0     2.080     10
            1  0  0  0     4.080     11
            0  1  0  0     4.080     12
            0  0  1  0     4.080     13
            2  0  0  0     2.000     14
            1  1  0  0     2.000     15
            1  0  1  0     2.000     16
            0  2  0  0     2.000     17
            0  1  1  0     2.000     18
            0  0  2  0     2.000     19
1
 ***************************************************************************************************



                                              ***********************
                                              *  T E C H N I C A L  *
                                              ***********************
  



 =============================================================
 P A R A L L E L I Z A T I O N  and  V E C T O R I Z A T I O N
 =============================================================
  
 Nr of parallel processes:                                1
 Maximum vector length in NumInt loops:                 128



 =====================
 S C F   U P D A T E S
 =====================
  
 Max. nr. of cycles:                               300
 Convergence criterion:                              0.0000000100
   secondary criterion:                              0.0000000100

 Mix parameter (when DIIS does not apply):           0.2000000000
 Special mix parameter for the first cycle:          1.0000000000
 Mixed ADIIS+SDIIS will be used                  
    Max number of expansion vectors:                10
    Pure ADIIS when Max([F,P]) is above              0.1000000000
    Pure SDIIS when Max([F,P]) is below              0.0010000000
 Automatic ElectronSmearing (in case of problematic SCF convergence) disabled



 =================
 P R E C I S I O N  ***  (General: NumInt, NeglectFunctionTails, ...)  ***
 =================
  

 NumInt:           Target precision:                12.0000000000
 -------           Initial precision:               10.0000000000
                   Min. precision (optimization):   10.0000000000

 Neglect Functions:          Basis functions:        0.1000000000E-13
 ------------------          Fit functions:          0.1000000000E-13



 ===========================
 L I N E A R   S C A L I N G
 ===========================
  

 Cut-off radii density fit:                        0.1000000000E-97
 Overlap cut-off criterion AO matrix elements:     0.1000000000E-97
 Cut-offs for Coulomb potential and fitted density:0.1000000000E-97
 Cut-off criterion for Coulomb multipole terms:    0.1000000000E-97
 Progressive Convergence parameter:                 0.000000000    
1
 ***************************************************************************************************



                                            ***************************
                                            *  C O M P U T A T I O N  *
                                            ***************************
  

 Number of elements of the density matrix on this node (used, total):       190       190



 ===========================================
 Numerical Integration : Fuzzy Cells (Becke)
 ===========================================
  
 Becke grid quality: VERYGOOD       
  
 Lebedev angular grid order:             min:  13 max:  41
 Nr. of radial points:                   min:  68 max:  68

 Total nr. of points:         68
 Nr. of blocks:                1
 Block length:                68
 Nr. of dummy points:          0


 Test of Precision of the Numerical Integration Grid
 ===================================================

 Integral of the Total Core Density:                   1.99999999865610
 Relative Error:                                      -6.720E-10



 ========================
 Density Fitting (zlmFit)
 ========================
  
 ZlmFit Fit Quality: VERYGOOD       
  
 Max L-expansion:                        min:   0 max:   0
 Nr. of radial interpolation points:     min: 140 max: 140



 =====
 S C F  ***  ScaSCF  ***
 =====
  

 CYCLE    1
 SCF Error: norm([F,P])=      0.000000000000, max([F,P])=      0.000000000000
 orbitals (Q,E):
 ---------------
 S :1...3            ( 2.00    -5.3654)  ( 0.00    -2.2073)  ( 0.00    23.6692)
 P :1...3            ( 4.00    -5.0045)  ( 0.00    -2.0150)  ( 0.00    -0.3846)
 D :1...1            ( 0.00    -2.0410)

 CYCLE    2
 SCF Error: norm([F,P])=      4.562993374873, max([F,P])=      2.528971113813
 orbitals (Q,E):
 ---------------
 S :1...2            ( 2.00    -0.1548)  ( 0.00     1.6948)
 P :1...2            ( 4.00     0.1773)  ( 0.00     0.9552)
 D :1...1            ( 0.00     1.4649)

 CYCLE    3
  SDIIS (wt  0.000):  0.3378  0.6622
 A-DIIS (wt  1.000):  0.4814  0.5186
  DIIS coefficients:  0.4814  0.5186
 SCF Error: norm([F,P])=      2.723155250500, max([F,P])=      1.798667049295
 orbitals (Q,E):
 ---------------
 S :1...2            ( 2.00    -1.1093)  ( 0.00     0.7549)
 P :1...2            ( 4.00    -0.5518)  ( 0.00     0.2590)
 D :1...1            ( 0.00     0.8910)

 CYCLE    4
  SDIIS (wt  0.000):  0.0919  0.9081
 A-DIIS (wt  1.000):  0.0000  1.0000
  DIIS coefficients:  0.0000  1.0000
 SCF Error: norm([F,P])=      0.289027138405, max([F,P])=      0.130648623511
 orbitals (Q,E):
 ---------------
 S :1...2            ( 2.00    -0.7707)  ( 0.00     0.9912)
 P :1...2            ( 4.00    -0.2284)  ( 0.00     0.4046)
 D :1...1            ( 0.00     1.1288)

 CYCLE    5
  SDIIS (wt  0.000):  0.0260  0.6740  0.3001
 A-DIIS (wt  1.000):  0.0000  0.5764  0.4236
  DIIS coefficients:  0.0000  0.5764  0.4236
 SCF Error: norm([F,P])=      0.416615089426, max([F,P])=      0.232643669786
 orbitals (Q,E):
 ---------------
 S :1...2            ( 2.00    -0.8764)  ( 0.00     0.9107)
 P :1...2            ( 4.00    -0.3280)  ( 0.00     0.3557)
 D :1...1            ( 0.00     1.0703)

 CYCLE    6
  SDIIS (wt  0.942):  0.0005  0.0237 -0.0203  0.9960
 A-DIIS (wt  0.058):  0.0000  0.0000  0.0000  1.0000
  DIIS coefficients:  0.0005  0.0224 -0.0191  0.9962
 SCF Error: norm([F,P])=      0.013723272809, max([F,P])=      0.006719036732
 orbitals (Q,E):
 ---------------
 S :1...2            ( 2.00    -0.8830)  ( 0.00     0.9058)
 P :1...2            ( 4.00    -0.3343)  ( 0.00     0.3521)
 D :1...1            ( 0.00     1.0657)

 CYCLE    7
  SDIIS (wt  1.000): -0.0000  0.0016  0.0023  0.0424  0.9537
  DIIS coefficients: -0.0000  0.0016  0.0023  0.0424  0.9537
 SCF Error: norm([F,P])=      0.001103645928, max([F,P])=      0.000634039171
 orbitals (Q,E):
 ---------------
 S :1...2            ( 2.00    -0.8827)  ( 0.00     0.9060)
 P :1...2            ( 4.00    -0.3340)  ( 0.00     0.3523)
 D :1...1            ( 0.00     1.0659)

 CYCLE    8
  SDIIS (wt  1.000): -0.0000 -0.0001  0.0000 -0.0032  0.0268  0.9765
  DIIS coefficients: -0.0000 -0.0001  0.0000 -0.0032  0.0268  0.9765
 SCF Error: norm([F,P])=      0.000035919805, max([F,P])=      0.000020263970
 orbitals (Q,E):
 ---------------
 S :1...2            ( 2.00    -0.8827)  ( 0.00     0.9060)
 P :1...2            ( 4.00    -0.3340)  ( 0.00     0.3522)
 D :1...1            ( 0.00     1.0659)

 CYCLE    9
  SDIIS (wt  1.000): -0.0000  0.0008  0.0188  0.9804
  DIIS coefficients: -0.0000  0.0008  0.0188  0.9804
 SCF Error: norm([F,P])=      0.000000326384, max([F,P])=      0.000000183924
 orbitals (Q,E):
 ---------------
 S :1...2            ( 2.00    -0.8827)  ( 0.00     0.9060)
 P :1...2            ( 4.00    -0.3340)  ( 0.00     0.3522)
 D :1...1            ( 0.00     1.0659)

 CYCLE   10
  SDIIS (wt  1.000):  0.0000  0.0003  0.9996
  DIIS coefficients:  0.0000  0.0003  0.9996
 SCF Error: norm([F,P])=      0.000000000559, max([F,P])=      0.000000000306
 orbitals (Q,E):
 ---------------
 S :1...2            ( 2.00    -0.8827)  ( 0.00     0.9060)
 P :1...2            ( 4.00    -0.3340)  ( 0.00     0.3522)
 D :1...1            ( 0.00     1.0659)

 SCF CONVERGED

 CYCLE   11
1
 ***************************************************************************************************



                                                *******************
                                                *  R E S U L T S  *
                                                *******************
  
 *** Using FIT density in Focky
  SDIIS (wt  1.000): -0.0000  0.0143  0.9857
  DIIS coefficients: -0.0000  0.0143  0.9857
 SCF Error: norm([F,P])=      0.000000000010, max([F,P])=      0.000000000006

 Scaled ZORA Orbital Energies, per Irrep and Spin:
 =================================================
                        Occup              E (au)              E (eV)       Diff (eV) with prev. cycle
                        -----      --------------------        ------       --------------------------
 S
               1        2.000     -0.88272313143209E+00       -24.020              -9.28E-11
               2        0.000      0.90601345014671E+00        24.654
               3        0.000      0.29578810816937E+02       804.880
 P
               1        4.000     -0.33400585272070E+00        -9.089              -8.94E-11
               2        0.000      0.35224911365993E+00         9.585
               3        0.000      0.38342927625315E+01       104.336
 D
               1        0.000      0.10658965783141E+01        29.005


 Partially Occupied:
               1 P                -0.33400585272070E+00
  
 HOMO :        1 S                -0.88272313143209E+00
 LUMO :        2 P                 0.35224911365993E+00
  


 Orbital Energies, all Irreps
 ========================================

 Irrep        no.  (spin)   Occup              E (au)                E (eV)
 ---------------------------------------------------------------------------
 S             1             2.00       -0.88272313143209E+00       -24.0201
 P             1             4.00       -0.33400585272070E+00        -9.0888
 P             2             0.00        0.35224911365993E+00         9.5852
 S             2             0.00        0.90601345014671E+00        24.6539
 D             1             0.00        0.10658965783141E+01        29.0045
 P             3             0.00        0.38342927625315E+01       104.3364
 S             3             0.00        0.29578810816937E+02       804.8804


 Scaled ZORA Orbital Energies of the Core Orbitals:
 ==================================================

 (Note that the atoms are grouped by atomtype, see the labels, and may hence NOT be in input order)

 AtomType  Orbital  Atom                   E (au)                        E (eV)
 --------  -------  ----           --------------------        ----------------
 O           1S        1          -0.18925919758629E+02                -515.000



 =======================================
 M U L L I K E N   P O P U L A T I O N S
 =======================================
  
 The survey below gives for each atom:
 a) the total charge (Z minus electrons)
 b) the net spin polarization (nr of electrons spin-A minus spin-B)
 c) for each spin the atomic electron valence density (integrated) per L-value.

 Atom              Charge    Spin density          S         P         D         F
 ----              ------    ------------       ------    ------    ------    ------
 1 O              -0.0000                       2.0000    4.0000    0.0000    0.0000

 Populations of individual BAS functions
 ----------------------------------------
 1 O            0.0005  0.9226  1.0966 -0.0196  0.3346  0.3346  0.3346  0.7512  0.7512  0.7512
                0.2476  0.2476  0.2476  0.0000  0.0000  0.0000  0.0000  0.0000  0.0000

 Gross Charges per Atom (Z minus electrons)
 ==========================================
            -0.0000
 Net Total: -0.00000000



 =======================================================================
 Electrostatic potential at the Nuclei due to electrons and other nuclei
 =======================================================================
  
         Atom                  Potential
         ----                  ---------
     1)   O                  22.20265662
 
 
 ========================
 No memory problems found
 ========================
 
 Maximum number of active allocate calls:         389
 
 *******************************************************************************

                             A D F   E X I T
 NORMAL TERMINATION



 =================
 Timing Statistics
 =================
  
 Total Used :                     CPU=        0.43      System=        0.02     Elapsed=        0.49

 Calls  Section                     ( Mean, Percentage )
 ---------------------------------------------------------------------------------------------------
     3  ><      ................      0.00    0.00             0.00   16.67             0.00    0.89
     1  INIT    ................      0.07   16.82             0.00    0.00             0.08   16.65
     1  GEOMET  ................      0.02    3.74             0.00   16.67             0.02    5.09
     1  INPUTA  ................      0.00    0.93             0.00    0.00             0.00    0.70
     1  MAINSY  ................      0.00    0.93             0.00   16.67             0.01    2.78
     1  SYMFIT  ................      0.00    0.00             0.00   16.67             0.00    0.33
     1  CORORT  ................      0.00    0.00             0.00    0.00             0.00    0.31
     1  SYMORB  ................      0.00    0.00             0.00    0.00             0.00    0.18
     1  CLSMAT  ................      0.01    1.87             0.00    0.00             0.01    1.20
     1  ORTHON  ................      0.00    0.93             0.00    0.00             0.01    1.07
     1  GENPT   ................      0.01    2.80             0.00    0.00             0.02    3.07
     1  PTBAS   ................      0.00    0.93             0.00    0.00             0.01    1.14
    11  FOCKY   ................      0.02   57.01             0.00   16.67             0.02   50.92
    11  FOCKTR  ................      0.00    0.93             0.00    0.00             0.00    1.54
    11  SDIIS   ................      0.00    4.67             0.00   16.67             0.00    6.23
     1  COREPS  ................      0.02    3.74             0.00    0.00             0.02    3.59
     1  POPAN   ................      0.00    0.93             0.00    0.00             0.01    1.13
     1  DEBYE   ................      0.00    0.93             0.00    0.00             0.00    0.39
     1  EXIT PROCEDURE .........      0.01    2.80             0.00    0.00             0.01    2.78


 Currently Open Files (EXIT00)
 ====================

 Unit    Access Format  Status   Type       Ident (file)
 -------------------------------------------------------
   3      SEQ    FORM   TRANSP  NORMAL      LOGFILE
                                          ( logfile )

 ***************************************************************************************************
 (LOGFILE)
 <Oct12-2020> <07:34:55>  DIRAC 2019  RunTime: Oct12-2020 07:34:55  Nodes: 1  Procs: 1
 <Oct12-2020> <07:34:55>  NORMAL TERMINATION
 <Oct12-2020> <07:34:55>  END
 <Oct12-2020> <07:34:55>  ADF 2019  RunTime: Oct12-2020 07:34:55  Nodes: 1  Procs: 1
 <Oct12-2020> <07:34:55>  Hydrogen (TZP)
 <Oct12-2020> <07:34:55>  RunType   : CREATE
 <Oct12-2020> <07:34:55>  Net Charge: 0 (Nuclei minus Electrons)
 <Oct12-2020> <07:34:55>  Symmetry  : ATOM
  Coordinates
    Atom         X           Y           Z   (Angstrom)
    1.H         0.000000    0.000000    0.000000
 <Oct12-2020> <07:34:55>  >>>> CORORT
 <Oct12-2020> <07:34:55>  >>>> CLSMAT
 <Oct12-2020> <07:34:55>  >>>> ORTHON
 <Oct12-2020> <07:34:55>  >>>> GENPT
 <Oct12-2020> <07:34:55>  Block Length=  64
 <Oct12-2020> <07:34:55>  >>>> PTBAS
 <Oct12-2020> <07:34:55>  >>>> CYCLE
 <Oct12-2020> <07:34:55>              |Error|         MaxErr       Wt(A-DIIS)
 <Oct12-2020> <07:34:55>      1      0.00000000      0.00000000
 <Oct12-2020> <07:34:55>      2      0.03153787      0.03011049
 <Oct12-2020> <07:34:55>      3      0.00861799      0.00834303    100.0
 <Oct12-2020> <07:34:55>      4      0.00173235      0.00171862      0.7
 <Oct12-2020> <07:34:55>      5      0.00004367      0.00003977      0.0
 <Oct12-2020> <07:34:55>      6      0.00000238      0.00000216      0.0
 <Oct12-2020> <07:34:55>      7      0.00000001      0.00000001      0.0
 <Oct12-2020> <07:34:55>  SCF converged
 <Oct12-2020> <07:34:55>      8      0.00000000      0.00000000      0.0
 <Oct12-2020> <07:34:56>  >>>> POPAN
 <Oct12-2020> <07:34:56>  >>>> DEBYE
 <Oct12-2020> <07:34:56>  NORMAL TERMINATION
 <Oct12-2020> <07:34:56>  END
 <Oct12-2020> <07:34:56>  DIRAC 2019  RunTime: Oct12-2020 07:34:56  Nodes: 1  Procs: 1
 <Oct12-2020> <07:34:56>  NORMAL TERMINATION
 <Oct12-2020> <07:34:56>  END
 <Oct12-2020> <07:34:56>  ADF 2019  RunTime: Oct12-2020 07:34:56  Nodes: 1  Procs: 1
 <Oct12-2020> <07:34:56>  Oxygen (TZP, 1s frozen)
 <Oct12-2020> <07:34:56>  RunType   : CREATE
 <Oct12-2020> <07:34:56>  Net Charge: 0 (Nuclei minus Electrons)
 <Oct12-2020> <07:34:56>  Symmetry  : ATOM
  Coordinates
    Atom         X           Y           Z   (Angstrom)
    1.O         0.000000    0.000000    0.000000
 <Oct12-2020> <07:34:56>  >>>> CORORT
 <Oct12-2020> <07:34:56>  >>>> CLSMAT
 <Oct12-2020> <07:34:56>  >>>> ORTHON
 <Oct12-2020> <07:34:56>  >>>> GENPT
 <Oct12-2020> <07:34:56>  Block Length=  68
 <Oct12-2020> <07:34:56>  >>>> PTBAS
 <Oct12-2020> <07:34:56>  >>>> CYCLE
 <Oct12-2020> <07:34:56>              |Error|         MaxErr       Wt(A-DIIS)
 <Oct12-2020> <07:34:56>      1      0.00000000      0.00000000
 <Oct12-2020> <07:34:56>      2      4.56299337      2.52897111
 <Oct12-2020> <07:34:56>      3      2.72315525      1.79866705    100.0
 <Oct12-2020> <07:34:56>      4      0.28902714      0.13064862    100.0
 <Oct12-2020> <07:34:56>      5      0.41661509      0.23264367    100.0
 <Oct12-2020> <07:34:56>      6      0.01372327      0.00671904      5.8
 <Oct12-2020> <07:34:56>      7      0.00110365      0.00063404      0.0
 <Oct12-2020> <07:34:56>      8      0.00003592      0.00002026      0.0
 <Oct12-2020> <07:34:56>      9      0.00000033      0.00000018      0.0
 <Oct12-2020> <07:34:56>     10      0.00000000      0.00000000      0.0
 <Oct12-2020> <07:34:56>  SCF converged
 <Oct12-2020> <07:34:56>     11      0.00000000      0.00000000      0.0
 <Oct12-2020> <07:34:56>  >>>> POPAN
 <Oct12-2020> <07:34:56>  >>>> DEBYE
 <Oct12-2020> <07:34:56>  NORMAL TERMINATION
 <Oct12-2020> <07:34:56>  END

 *******************************************************************************
 *                                                                             *
 *  -------------------------------------                                      *
 *   Amsterdam Density Functional  (ADF)         2019                          *
 *  -------------------------------------                                      *
 *                                               r79301 2019-11-09             *
 *                                                                             *
 *                                                                             *
 *                            =====================                            *
 *                            |                   |                            *
 *                            |     D I R A C     |                            *
 *                            |                   |                            *
 *                            =====================                            *
 *                                                                             *
 *                                                                             *
 *   Online information and documentation:  https://www.scm.com/support/       *
 *   E-mail:  support@scm.com   info@scm.com                                   *
 *                                                                             *
 *   Scientific publications using ADF results must be properly referenced     *
 *   See the User Manuals (or the web site) for recommended citations          *
 *   The terms and conditions of the End User License Agreement apply to       *
 *   the use of ADF, https://www.scm.com/license-terms/                        *
 *                                                                             *
 **********************  x86_64_linux_intel / intelmpi  ************************
 
 
 
  
 DIRAC 2019  RunTime: Oct12-2020 07:34:56  Nodes: 1  Procs: 1

 Temporary files are created in /scratch/kid_0.757574522 (0x58465342)

1
 TUNGSTEN ATOM 4d CORE RELATIVISTIC, Point Nuc, A and c from 
 N J RN H ZN XION ANUC CLIGHT
 5000   22100.00000000197.36710137 74.00000000  0.00000000  183.950932  0.1370360E+03
  PH   PHI     EPS        DEL        DELRVR
  0.30  0.30     2500.00  0.00001000  0.00001000
 IDIRC  NC1  NDEBU NPRIN  IPUN IRCOR IWCOR
   1   300     0     0     0     0    14
   XALPHA      XLATTER      RNUC
  0.70000000  0.00000000  0.00000000 Point Charge
   XN   XL   XJ      XE          XZ      XDELL
  1.0  0.0  0.5   -2600.000       2.000     0.00000
  2.0  0.0  0.5    -425.000       2.000     0.00000
  2.0  1.0  0.5    -425.000       2.000     0.00000
  2.0  1.0  1.5    -425.000       4.000     0.00000
  3.0  0.0  0.5    -100.000       2.000     0.00000
  3.0  1.0  0.5    -100.000       2.000     0.00000
  3.0  1.0  1.5    -100.000       4.000     0.00000
  3.0  2.0  1.5     -80.000       4.000     0.00000
  3.0  2.0  2.5     -80.000       6.000     0.00000
  4.0  0.0  0.5     -22.000       2.000     0.00000
  4.0  1.0  0.5     -20.000       2.000     0.00000
  4.0  1.0  1.5     -20.000       4.000     0.00000
  4.0  2.0  1.5     -11.000       4.000     0.00000
  4.0  2.0  2.5     -11.000       6.000     0.00000
  4.0  3.0  2.5      -1.000       6.000     0.00000
  4.0  3.0  3.5      -1.000       8.000     0.00000
  5.0  0.0  0.5      -3.000       2.000     0.00000
  5.0  1.0  0.5      -2.200       2.000     0.00000
  5.0  1.0  1.5      -2.200       4.000     0.00000
  5.0  2.0  1.5      -0.500       4.000     0.00000
  5.0  2.0  2.5      -0.500       0.000     0.00000
  6.0  0.0  0.5      -0.200       2.000     0.00000
 ICORP=  0  NPCL=  0  DEMP=0.00  PEPS=0.000000
 R(1)=  0.1000000E-08 D=  0.1005080E+01 RNUC=  0.0000000E+00
 converged at cycle   63  DENSITY AVERAGING    0.1536
  MAXIMUM ERROR IN R.V(R) IS   0.78838062E-05
 Q,EY,EV,EZ,ESUM,ETOT,RHO  0.740000E+02 -0.431420E+03 -0.281568E+05 -0.403919E+05 -0.993885E+04 -0.161643E+05  0.726391E-09


 DIRAC CALCULATION
1                    TUNGSTEN ATOM 4d CORE RELATIVISTIC, Point Nuc, A and c from libtc


 EXCHANGE COEFFICIENT=  0.7000000           TAIL CORRECTION=  0.           NUCLEAR RADIUS=  0.000E+00
0                       ORBITAL    N    L    J     ELECTRONS     EIGENVALUE                DELTA OF EIGENV.

                          1S1/2  1.0  0.0  0.5     2.000       -0.2549514E+04                 0.5980248E-04
                          2S1/2  2.0  0.0  0.5     2.000       -0.4399118E+03                 0.5052420E-04
                          2P1/2  2.0  1.0  0.5     2.000       -0.4208427E+03                 0.5265062E-04
                          2P3/2  2.0  1.0  1.5     4.000       -0.3711192E+03                 0.5139441E-04
                          3S1/2  3.0  0.0  0.5     2.000       -0.1012881E+03                 0.3437035E-04
                          3P1/2  3.0  1.0  0.5     2.000       -0.9277148E+02                 0.3553128E-04
                          3P3/2  3.0  1.0  1.5     4.000       -0.8201733E+02                 0.3404634E-04
                          3D3/2  3.0  2.0  1.5     4.000       -0.6762803E+02                 0.3680712E-04
                          3D5/2  3.0  2.0  2.5     6.000       -0.6528623E+02                 0.3629511E-04
                          4S1/2  4.0  0.0  0.5     2.000       -0.2084139E+02                 0.1939427E-04
                          4P1/2  4.0  1.0  0.5     2.000       -0.1730737E+02                 0.1933978E-04
                          4P3/2  4.0  1.0  1.5     4.000       -0.1480597E+02                 0.1810922E-04
                          4D3/2  4.0  2.0  1.5     4.000       -0.8989319E+01                 0.1779394E-04
                          4D5/2  4.0  2.0  2.5     6.000       -0.8528007E+01                 0.1741170E-04
                          4F5/2  4.0  3.0  2.5     6.000       -0.1237480E+01                 0.1544089E-04
                          4F7/2  4.0  3.0  3.5     8.000       -0.1154634E+01                 0.1522033E-04
                          5S1/2  5.0  0.0  0.5     2.000       -0.2863514E+01                 0.7979521E-05
                          5P1/2  5.0  1.0  0.5     2.000       -0.1813289E+01                 0.7246225E-05
                          5P3/2  5.0  1.0  1.5     4.000       -0.1448762E+01                 0.6602120E-05
                          5D3/2  5.0  2.0  1.5     4.000       -0.1486933E+00                 0.3973088E-05
                          5D5/2  5.0  2.0  2.5     0.000       -0.1223153E+00                 0.3735081E-05
                          6S1/2  6.0  0.0  0.5     2.000       -0.1847434E+00                 0.1808440E-05


                                        NUCLEAR CHARGE=   74.000000
                            INTEGRAL OF CHARGE DENSITY=   74.000000
                           SUM OF THE ORBITAL ENERGIES=  -9938.8529
                                          TOTAL ENERGY= -16164.2530
                                        KINETIC ENERGY=  18217.9700
                             NUCLEAR ATTRACTION ENERGY= -40391.9132
                             ELECTRON REPULSION ENERGY=   6333.2551
                                       EXCHANGE ENERGY=   -323.5649

 *******************************************************************************

                             D I R A C   E X I T
 NORMAL TERMINATION



 =================
 Timing Statistics
 =================
  
 Total Used :                     CPU=        0.67      System=        0.01     Elapsed=        0.70

 Calls  Section                     ( Mean, Percentage )
 ---------------------------------------------------------------------------------------------------
     2  ><      ................      0.00    0.00             0.00    0.00             0.00    0.00
     1  EXIT PROCEDURE .........      0.67  100.00             0.01  100.00             0.70  100.00


 Currently Open Files (EXIT00)
 ====================

 Unit    Access Format  Status   Type       Ident (file)
 -------------------------------------------------------
   3      SEQ    FORM   TRANSP  NORMAL      LOGFILE
                                          ( logfile )
 
Create W   file=TZP-W.4d
XC
  GGA PBE
End
relativistic ZORA
Corepotentials t12.rel
End

 *******************************************************************************
 *                                                                             *
 *  -------------------------------------                                      *
 *   Amsterdam Density Functional  (ADF)         2019                          *
 *  -------------------------------------                                      *
 *                                               r79301 2019-11-09             *
 *                                                                             *
 *                                                                             *
 *                              =================                              *
 *                              |               |                              *
 *                              |     A D F     |                              *
 *                              |               |                              *
 *                              =================                              *
 *                                                                             *
 *                                                                             *
 *   Online information and documentation:  https://www.scm.com/support/       *
 *   E-mail:  support@scm.com   info@scm.com                                   *
 *                                                                             *
 *   Scientific publications using ADF results must be properly referenced     *
 *   See the User Manuals (or the web site) for recommended citations          *
 *   The terms and conditions of the End User License Agreement apply to       *
 *   the use of ADF, https://www.scm.com/license-terms/                        *
 *                                                                             *
 **********************  x86_64_linux_intel / intelmpi  ************************
 
 
 
  
 ADF 2019  RunTime: Oct12-2020 07:34:57  Nodes: 1  Procs: 1

 Temporary files are created in /scratch/kid_0.1800700307 (0x58465342)

 Tungsten (TZP, 4d frozen)



 ===========================
 A T T A C H E D   F I L E S
 ===========================
  
 CREATE - Data File:    TZP-W.4d
                        Tungsten (TZP, 4d frozen)
 Core Potentials:
         file : t12.rel



 ===============================
 M O D E L   P A R A M E T E R S
 ===============================
  
 DENSITY FUNCTIONAL POTENTIAL (scf)
    LDA:                               PW92                                    == Not Default ==
    Gradient Corrections:              PBEc PBEx                               == Not Default ==

 SPIN  (restricted / unrestr.)
    Molecule:                          Restricted                               

 OTHER ASPECTS
    Relativistic Corrections:          scalar (ZORA,MAPA)                      == Not Default ==

    Nuclear Charge Density Model:      Point Charge Nuclei                      
    Core Treatment:                    Frozen Orbital(s)                        

    Hyperfine or Zeeman Interaction:   ---                                      



 =====================================
 S Y M M E T R Y ,   E L E C T R O N S
 =====================================
  
 Symmetry: ATOM

 Irreducible Representations, including subspecies
 -------------------------------------------------
 S
 P:x  P:y  P:z
 D:z2  D:x2-y2  D:xy  D:xz  D:yz
 F:z3  F:z  F:xyz  F:z2x  F:z2y  F:x  F:y


 Configuration of Valence Electrons
 ==================================

          Occupation Numbers
          -------------------------------------------------
 S        2*2
 P        6
 D        4
 F        14
          -------------------------------------------------

 Total:   28

 Net Charge: 0 (Nuclei minus Electrons)

 Preset values for MO occupations will be applied through SCF cycle no. 1000000
 Thereafter, the program will assign electrons to MOs that are spatially
 similar to the occupied MOs in a "reference" cycle ("KeepOrbitals").
 The reference cycle is always the PREVIOUS cycle: it will evolve with
 the SCF procedure.



 ================================
 (Slater-type)  F U N C T I O N S  ***  (Basis and Fit)  ***
 ================================
  

 Atom Type    1  (W)
 ==============

 Valence Basis Sets:  25
 -----------------------
   1 S   52.000000
   2 S   33.250000
   3 S   19.100000
   4 S   11.650000
   2 P   36.850000
   3 P   16.500000
   4 P   11.550000
   3 D   20.100000
   4 D   10.300000
   1 S  163.900000
   5 S    6.050000
   5 S    3.950000
   6 S    2.850000
   6 S    1.800000
   6 S    1.140000
   5 P    5.900000
   5 P    4.000000
   5 P    2.700000
   5 D    4.150000
   5 D    2.250000
   5 D    1.200000
   4 F   13.550000
   4 F    7.050000
   4 F    3.550000
   6 P    1.800000

 Frozen Core Shells
 ------------------
    S:  4
    P:  3
    D:  2


 BAS: List of all Elementary Cartesian Basis Functions
 =====================================================

 The numbering in the list below (to the right of the function characteristics) is referred
 to in print-outs of MO eigenvectors and Mulliken populations in the BAS representation
 (as contrasted to the SFO representation).

 Notes:
 1. The functions are characterized by a polynomial prefactor (powers of x,y,z and r) and
    an exponential decay factor alpha.
 2. Since the basis sets are specific for an atom TYPE, the individual functions occur on
    all atoms of that type.
 3. The word 'Core' in the left margin signals that it is a Core Function (CF) : not a
    degree of freedom in the valence set, but only used to ensure orthogonalization of
    the other valence basis functions on the frozen Core Orbitals.


 (power of) X  Y  Z  R     Alpha  on Atom
            ==========     =====     ==========

 W                                    1
                                  ---------------------------------------------------------------------------
    Core    0  0  0  0    52.000      1
    Core    0  0  0  1    33.250      2
    Core    0  0  0  2    19.100      3
    Core    0  0  0  3    11.650      4
    Core    1  0  0  0    36.850      5
    Core    0  1  0  0    36.850      6
    Core    0  0  1  0    36.850      7
    Core    1  0  0  1    16.500      8
    Core    0  1  0  1    16.500      9
    Core    0  0  1  1    16.500     10
    Core    1  0  0  2    11.550     11
    Core    0  1  0  2    11.550     12
    Core    0  0  1  2    11.550     13
    Core    2  0  0  0    20.100     14
    Core    1  1  0  0    20.100     15
    Core    1  0  1  0    20.100     16
    Core    0  2  0  0    20.100     17
    Core    0  1  1  0    20.100     18
    Core    0  0  2  0    20.100     19
    Core    2  0  0  1    10.300     20
    Core    1  1  0  1    10.300     21
    Core    1  0  1  1    10.300     22
    Core    0  2  0  1    10.300     23
    Core    0  1  1  1    10.300     24
    Core    0  0  2  1    10.300     25
            0  0  0  0   163.900     26
            0  0  0  4     6.050     27
            0  0  0  4     3.950     28
            0  0  0  5     2.850     29
            0  0  0  5     1.800     30
            0  0  0  5     1.140     31
            1  0  0  3     5.900     32
            0  1  0  3     5.900     33
            0  0  1  3     5.900     34
            1  0  0  3     4.000     35
            0  1  0  3     4.000     36
            0  0  1  3     4.000     37
            1  0  0  3     2.700     38
            0  1  0  3     2.700     39
            0  0  1  3     2.700     40
            2  0  0  2     4.150     41
            1  1  0  2     4.150     42
            1  0  1  2     4.150     43
            0  2  0  2     4.150     44
            0  1  1  2     4.150     45
            0  0  2  2     4.150     46
            2  0  0  2     2.250     47
            1  1  0  2     2.250     48
            1  0  1  2     2.250     49
            0  2  0  2     2.250     50
            0  1  1  2     2.250     51
            0  0  2  2     2.250     52
            2  0  0  2     1.200     53
            1  1  0  2     1.200     54
            1  0  1  2     1.200     55
            0  2  0  2     1.200     56
            0  1  1  2     1.200     57
            0  0  2  2     1.200     58
            3  0  0  0    13.550     59
            2  1  0  0    13.550     60
            2  0  1  0    13.550     61
            1  2  0  0    13.550     62
            1  1  1  0    13.550     63
            1  0  2  0    13.550     64
            0  3  0  0    13.550     65
            0  2  1  0    13.550     66
            0  1  2  0    13.550     67
            0  0  3  0    13.550     68
            3  0  0  0     7.050     69
            2  1  0  0     7.050     70
            2  0  1  0     7.050     71
            1  2  0  0     7.050     72
            1  1  1  0     7.050     73
            1  0  2  0     7.050     74
            0  3  0  0     7.050     75
            0  2  1  0     7.050     76
            0  1  2  0     7.050     77
            0  0  3  0     7.050     78
            3  0  0  0     3.550     79
            2  1  0  0     3.550     80
            2  0  1  0     3.550     81
            1  2  0  0     3.550     82
            1  1  1  0     3.550     83
            1  0  2  0     3.550     84
            0  3  0  0     3.550     85
            0  2  1  0     3.550     86
            0  1  2  0     3.550     87
            0  0  3  0     3.550     88
            1  0  0  4     1.800     89
            0  1  0  4     1.800     90
            0  0  1  4     1.800     91

 Total number of charge fitting functions (nprimf)       329
 Total number of Cartesian basis functions (naos)         91
 Total number of Cartesian core functions  (ncos)         25



 BAS: List of all Elementary Cartesian Basis Functions
 =====================================================

 The numbering in the list below (to the right of the function characteristics) is referred
 to in print-outs of MO eigenvectors and Mulliken populations in the BAS representation
 (as contrasted to the SFO representation).

 Notes:
 1. The functions are characterized by a polynomial prefactor (powers of x,y,z and r) and
    an exponential decay factor alpha.
 2. Since the basis sets are specific for an atom TYPE, the individual functions occur on
    all atoms of that type.
 3. The word 'Core' in the left margin signals that it is a Core Function (CF) : not a
    degree of freedom in the valence set, but only used to ensure orthogonalization of
    the other valence basis functions on the frozen Core Orbitals.


 (power of) X  Y  Z  R     Alpha  on Atom
            ==========     =====     ==========

 W                                    1
                                  ---------------------------------------------------------------------------
    Core    0  0  0  0    52.000      1
    Core    0  0  0  1    33.250      2
    Core    0  0  0  2    19.100      3
    Core    0  0  0  3    11.650      4
    Core    1  0  0  0    36.850      5
    Core    0  1  0  0    36.850      6
    Core    0  0  1  0    36.850      7
    Core    1  0  0  1    16.500      8
    Core    0  1  0  1    16.500      9
    Core    0  0  1  1    16.500     10
    Core    1  0  0  2    11.550     11
    Core    0  1  0  2    11.550     12
    Core    0  0  1  2    11.550     13
    Core    2  0  0  0    20.100     14
    Core    1  1  0  0    20.100     15
    Core    1  0  1  0    20.100     16
    Core    0  2  0  0    20.100     17
    Core    0  1  1  0    20.100     18
    Core    0  0  2  0    20.100     19
    Core    2  0  0  1    10.300     20
    Core    1  1  0  1    10.300     21
    Core    1  0  1  1    10.300     22
    Core    0  2  0  1    10.300     23
    Core    0  1  1  1    10.300     24
    Core    0  0  2  1    10.300     25
            0  0  0  0   163.900     26
            0  0  0  4     6.050     27
            0  0  0  4     3.950     28
            0  0  0  5     2.850     29
            0  0  0  5     1.800     30
            0  0  0  5     1.140     31
            1  0  0  3     5.900     32
            0  1  0  3     5.900     33
            0  0  1  3     5.900     34
            1  0  0  3     4.000     35
            0  1  0  3     4.000     36
            0  0  1  3     4.000     37
            1  0  0  3     2.700     38
            0  1  0  3     2.700     39
            0  0  1  3     2.700     40
            2  0  0  2     4.150     41
            1  1  0  2     4.150     42
            1  0  1  2     4.150     43
            0  2  0  2     4.150     44
            0  1  1  2     4.150     45
            0  0  2  2     4.150     46
            2  0  0  2     2.250     47
            1  1  0  2     2.250     48
            1  0  1  2     2.250     49
            0  2  0  2     2.250     50
            0  1  1  2     2.250     51
            0  0  2  2     2.250     52
            2  0  0  2     1.200     53
            1  1  0  2     1.200     54
            1  0  1  2     1.200     55
            0  2  0  2     1.200     56
            0  1  1  2     1.200     57
            0  0  2  2     1.200     58
            3  0  0  0    13.550     59
            2  1  0  0    13.550     60
            2  0  1  0    13.550     61
            1  2  0  0    13.550     62
            1  1  1  0    13.550     63
            1  0  2  0    13.550     64
            0  3  0  0    13.550     65
            0  2  1  0    13.550     66
            0  1  2  0    13.550     67
            0  0  3  0    13.550     68
            3  0  0  0     7.050     69
            2  1  0  0     7.050     70
            2  0  1  0     7.050     71
            1  2  0  0     7.050     72
            1  1  1  0     7.050     73
            1  0  2  0     7.050     74
            0  3  0  0     7.050     75
            0  2  1  0     7.050     76
            0  1  2  0     7.050     77
            0  0  3  0     7.050     78
            3  0  0  0     3.550     79
            2  1  0  0     3.550     80
            2  0  1  0     3.550     81
            1  2  0  0     3.550     82
            1  1  1  0     3.550     83
[...]
 <Oct12-2020> <08:10:45>  >>>> TOTEN
 <Oct12-2020> <08:10:49>  >>>> POPAN
 <Oct12-2020> <08:10:49>  >>>> DEBYE
 <Oct12-2020> <08:10:49>  >>>> ENGRAD
 <Oct12-2020> <08:11:01>  current energy                               -9.77326012 Hartree
 <Oct12-2020> <08:11:01>  energy change                      -0.00001570     0.00100000    T
 <Oct12-2020> <08:11:01>  constrained gradient max            0.00261805     0.00100000    F
 <Oct12-2020> <08:11:01>  constrained gradient rms            0.00058391     0.00066667    T
 <Oct12-2020> <08:11:01>  gradient max                        0.00261805
 <Oct12-2020> <08:11:01>  gradient rms                        0.00058391
 <Oct12-2020> <08:11:01>  cart. step max                      0.00555086     0.01000000    T
 <Oct12-2020> <08:11:01>  cart. step rms                      0.00178682     0.00666667    T
  Coordinates in Geometry Cycle 26
    Atom         X           Y           Z   (Angstrom)
    1.W         1.947292   -1.338647    3.037770
    2.W         2.221303    2.399444    4.439525
    3.O        -0.772129    4.219173    5.901569
    4.W         0.741461   -0.132871    5.950721
    5.W        -1.465278   -1.007977    3.361783
    6.W        -1.170682    2.727374    4.991192
    7.W        -2.774269    0.034476    6.122023
    8.O         0.497190   -1.549693    4.678106
    9.O         0.747454    1.762075    6.079347
   10.O         1.819281    0.489662    4.192717
   11.O         0.204654    2.758604    3.741335
   12.O         3.345805   -1.918445    3.969342
   13.O        -0.059387   -0.511964    2.329548
   14.O        -2.846206   -0.570754    2.374095
   15.O        -1.277249   -2.893328    2.941539
   16.O        -2.545474    3.199763    3.993169
   17.O        -0.692318   -0.499067    6.992705
   18.O        -2.139940    1.834164    6.506615
   19.O         1.921865    4.195109    5.236323
   20.O         2.695510   -0.540647    1.635528
   21.O        -3.353608   -0.564535    7.691371
   22.O        -1.268050    0.564696    4.571357
   23.O        -2.446476   -1.558438    5.070079
   24.O        -4.277250    0.515954    5.324671
   25.O         1.287275   -2.900849    2.372501
   26.O         2.884418    2.814945    2.860034
   27.O         2.091161   -0.648102    6.949544
   28.O         3.676507    2.166561    5.426734
   29.H         0.960274    4.324211    5.465730
   30.H        -0.283443   -3.029662    2.721634
 <Oct12-2020> <08:11:01>  >>>> CORORT
 <Oct12-2020> <08:11:01>  >>>> CLSMAT
 <Oct12-2020> <08:11:01>  >>>> ORTHON
 <Oct12-2020> <08:11:01>  >>>> GENPT
 <Oct12-2020> <08:11:01>  Block Length= 128
 <Oct12-2020> <08:11:01>  >>>> PTBAS
 <Oct12-2020> <08:11:05>  combining surface points...
 <Oct12-2020> <08:11:05>  combining surface points...
 <Oct12-2020> <08:11:05>  combining surface points...
 <Oct12-2020> <08:11:05>  >>>> CYCLE
 <Oct12-2020> <08:11:10>              |Error|         MaxErr       Wt(A-DIIS)
 <Oct12-2020> <08:11:10>      1      0.30980816      0.07727685
 <Oct12-2020> <08:11:14>      2      0.47296727      0.03448756    100.0
 <Oct12-2020> <08:11:17>      3      0.16281311      0.01472308    100.0
 <Oct12-2020> <08:11:20>      4      0.29734321      0.02360649    100.0
 <Oct12-2020> <08:11:23>      5      0.37598805      0.02919292    100.0
 <Oct12-2020> <08:11:26>      6      0.18525489      0.02253778    100.0
 <Oct12-2020> <08:11:29>      7      0.26594647      0.02853644    100.0
 <Oct12-2020> <08:11:32>      8      0.13074461      0.01483820     14.0
 <Oct12-2020> <08:11:35>      9      0.02762337      0.00278334      1.8
 <Oct12-2020> <08:11:38>     10      0.00669407      0.00087573      0.0
 <Oct12-2020> <08:11:41>     11      0.00321815      0.00046825      0.0
 <Oct12-2020> <08:11:45>     12      0.00083903      0.00013468      0.0
 <Oct12-2020> <08:11:47>     13      0.00058641      0.00005786      0.0
 <Oct12-2020> <08:11:50>     14      0.00039490      0.00003962      0.0
 <Oct12-2020> <08:11:53>     15      0.00010686      0.00001139      0.0
 <Oct12-2020> <08:11:56>     16      0.00004464      0.00000631      0.0
 <Oct12-2020> <08:11:59>     17      0.00008038      0.00000801      0.0
 <Oct12-2020> <08:12:02>     18      0.00001691      0.00000215      0.0
 <Oct12-2020> <08:12:05>     19      0.00000783      0.00000100      0.0
 <Oct12-2020> <08:12:08>     20      0.00000498      0.00000067      0.0
 <Oct12-2020> <08:12:09>  SCF converged
 <Oct12-2020> <08:12:11>     21      0.00000218      0.00000023      0.0
 <Oct12-2020> <08:12:12>  >>>> TOTEN
 <Oct12-2020> <08:12:16>  >>>> POPAN
 <Oct12-2020> <08:12:16>  >>>> DEBYE
 <Oct12-2020> <08:12:16>  >>>> ENGRAD
 <Oct12-2020> <08:12:28>  current energy                               -9.77328598 Hartree
 <Oct12-2020> <08:12:28>  energy change                      -0.00002586     0.00100000    T
 <Oct12-2020> <08:12:28>  constrained gradient max            0.00167374     0.00100000    F
 <Oct12-2020> <08:12:28>  constrained gradient rms            0.00044799     0.00066667    T
 <Oct12-2020> <08:12:28>  gradient max                        0.00167374
 <Oct12-2020> <08:12:28>  gradient rms                        0.00044799
 <Oct12-2020> <08:12:28>  cart. step max                      0.00277018     0.01000000    T
 <Oct12-2020> <08:12:28>  cart. step rms                      0.00097540     0.00666667    T
  Coordinates in Geometry Cycle 27
    Atom         X           Y           Z   (Angstrom)
    1.W         1.947429   -1.336449    3.037861
    2.W         2.222920    2.398911    4.440137
    3.O        -0.771458    4.219051    5.901482
    4.W         0.741163   -0.133352    5.950951
    5.W        -1.465737   -1.008302    3.362073
    6.W        -1.170528    2.727380    4.990936
    7.W        -2.775746    0.034245    6.121356
    8.O         0.496888   -1.549633    4.678693
    9.O         0.748461    1.761617    6.079412
   10.O         1.819266    0.490090    4.192408
   11.O         0.204130    2.756779    3.741343
   12.O         3.346119   -1.917812    3.968146
   13.O        -0.060473   -0.509867    2.330123
   14.O        -2.847105   -0.572347    2.374402
   15.O        -1.275794   -2.893176    2.942952
   16.O        -2.545233    3.201367    3.993383
   17.O        -0.692572   -0.499151    6.992678
   18.O        -2.140691    1.834044    6.506264
   19.O         1.921998    4.195696    5.233553
   20.O         2.695542   -0.540147    1.634595
   21.O        -3.353647   -0.567151    7.690287
   22.O        -1.268439    0.564526    4.571625
   23.O        -2.447032   -1.558102    5.070204
   24.O        -4.279432    0.515561    5.325231
   25.O         1.286046   -2.898747    2.374113
   26.O         2.886490    2.812717    2.860392
   27.O         2.090938   -0.649024    6.949679
   28.O         3.677682    2.166833    5.427758
   29.H         0.960660    4.324158    5.464592
   30.H        -0.282154   -3.028483    2.721982
 <Oct12-2020> <08:12:28>  >>>> CORORT
 <Oct12-2020> <08:12:28>  >>>> CLSMAT
 <Oct12-2020> <08:12:28>  >>>> ORTHON
 <Oct12-2020> <08:12:28>  >>>> GENPT
 <Oct12-2020> <08:12:29>  Block Length= 128
 <Oct12-2020> <08:12:29>  >>>> PTBAS
 <Oct12-2020> <08:12:33>  combining surface points...
 <Oct12-2020> <08:12:33>  combining surface points...
 <Oct12-2020> <08:12:33>  combining surface points...
 <Oct12-2020> <08:12:33>  >>>> CYCLE
 <Oct12-2020> <08:12:38>              |Error|         MaxErr       Wt(A-DIIS)
 <Oct12-2020> <08:12:38>      1      0.20994060      0.03610871
 <Oct12-2020> <08:12:41>      2      0.47374979      0.03463603    100.0
 <Oct12-2020> <08:12:44>      3      0.16241736      0.01461696    100.0
 <Oct12-2020> <08:12:47>      4      0.29269463      0.02294347    100.0
 <Oct12-2020> <08:12:50>      5      0.38524635      0.03002665    100.0
 <Oct12-2020> <08:12:54>      6      0.18327016      0.02237707    100.0
 <Oct12-2020> <08:12:57>      7      0.27998134      0.03009827    100.0
 <Oct12-2020> <08:13:00>      8      0.14824718      0.01616748     15.3
 <Oct12-2020> <08:13:03>      9      0.02731090      0.00287308      1.9
 <Oct12-2020> <08:13:06>     10      0.00681824      0.00087839      0.0
 <Oct12-2020> <08:13:09>     11      0.00330678      0.00048043      0.0
 <Oct12-2020> <08:13:12>     12      0.00085509      0.00013824      0.0
 <Oct12-2020> <08:13:15>     13      0.00058632      0.00005780      0.0
 <Oct12-2020> <08:13:18>     14      0.00049405      0.00005325      0.0
 <Oct12-2020> <08:13:21>     15      0.00010437      0.00001111      0.0
 <Oct12-2020> <08:13:24>     16      0.00004859      0.00000706      0.0
 <Oct12-2020> <08:13:27>     17      0.00007315      0.00000741      0.0
 <Oct12-2020> <08:13:30>     18      0.00001326      0.00000170      0.0
 <Oct12-2020> <08:13:33>     19      0.00001064      0.00000125      0.0
 <Oct12-2020> <08:13:36>     20      0.00000444      0.00000055      0.0
 <Oct12-2020> <08:13:37>  SCF converged
 <Oct12-2020> <08:13:39>     21      0.00000238      0.00000026      0.0
 <Oct12-2020> <08:13:40>  >>>> TOTEN
 <Oct12-2020> <08:13:44>  >>>> POPAN
 <Oct12-2020> <08:13:44>  >>>> DEBYE
 <Oct12-2020> <08:13:44>  >>>> ENGRAD
 <Oct12-2020> <08:13:56>  current energy                               -9.77329699 Hartree
 <Oct12-2020> <08:13:56>  energy change                      -0.00001101     0.00100000    T
 <Oct12-2020> <08:13:56>  constrained gradient max            0.00123145     0.00100000    F
 <Oct12-2020> <08:13:56>  constrained gradient rms            0.00034561     0.00066667    T
 <Oct12-2020> <08:13:56>  gradient max                        0.00123145
 <Oct12-2020> <08:13:56>  gradient rms                        0.00034561
 <Oct12-2020> <08:13:56>  cart. step max                      0.00343890     0.01000000    T
 <Oct12-2020> <08:13:56>  cart. step rms                      0.00120152     0.00666667    T
  Coordinates in Geometry Cycle 28
    Atom         X           Y           Z   (Angstrom)
    1.W         1.948040   -1.334617    3.037245
    2.W         2.223998    2.398071    4.440801
    3.O        -0.768864    4.218896    5.901369
    4.W         0.740534   -0.134121    5.951091
    5.W        -1.466255   -1.008417    3.362133
    6.W        -1.170883    2.727890    4.990639
    7.W        -2.777942    0.034029    6.120495
    8.O         0.497175   -1.549351    4.678560
    9.O         0.748767    1.760985    6.079727
   10.O         1.818899    0.490742    4.191143
   11.O         0.202537    2.754699    3.741064
   12.O         3.347005   -1.915712    3.967047
   13.O        -0.061624   -0.508628    2.330249
   14.O        -2.847773   -0.574370    2.373830
   15.O        -1.273345   -2.893922    2.946105
   16.O        -2.545579    3.204806    3.994085
   17.O        -0.693005   -0.498976    6.992954
   18.O        -2.141954    1.834408    6.505263
   19.O         1.922167    4.195258    5.231564
   20.O         2.695660   -0.539478    1.633012
   21.O        -3.354296   -0.568245    7.689538
   22.O        -1.269015    0.564579    4.571419
   23.O        -2.447986   -1.557246    5.070632
   24.O        -4.282343    0.515546    5.325892
   25.O         1.287039   -2.897373    2.374564
   26.O         2.887180    2.812392    2.861033
   27.O         2.090499   -0.649791    6.949772
   28.O         3.679437    2.164221    5.426667
   29.H         0.961411    4.322925    5.466169
   30.H        -0.279788   -3.027970    2.724547
 <Oct12-2020> <08:13:56>  >>>> CORORT
 <Oct12-2020> <08:13:56>  >>>> CLSMAT
 <Oct12-2020> <08:13:56>  >>>> ORTHON
 <Oct12-2020> <08:13:56>  >>>> GENPT
 <Oct12-2020> <08:13:57>  Block Length= 128
 <Oct12-2020> <08:13:57>  >>>> PTBAS
 <Oct12-2020> <08:14:01>  combining surface points...
 <Oct12-2020> <08:14:01>  combining surface points...
 <Oct12-2020> <08:14:01>  combining surface points...
 <Oct12-2020> <08:14:01>  >>>> CYCLE
 <Oct12-2020> <08:14:06>              |Error|         MaxErr       Wt(A-DIIS)
 <Oct12-2020> <08:14:06>      1      0.23739666      0.04488111
 <Oct12-2020> <08:14:09>      2      0.47503172      0.03458051    100.0
 <Oct12-2020> <08:14:13>      3      0.16283563      0.01469467    100.0
 <Oct12-2020> <08:14:16>      4      0.29572091      0.02325718    100.0
 <Oct12-2020> <08:14:19>      5      0.37973824      0.02947010    100.0
 <Oct12-2020> <08:14:22>      6      0.18513469      0.02267607    100.0
 <Oct12-2020> <08:14:25>      7      0.27183961      0.02889846    100.0
 <Oct12-2020> <08:14:28>      8      0.13637432      0.01520789     14.4
 <Oct12-2020> <08:14:31>      9      0.02768629      0.00280936      1.8
 <Oct12-2020> <08:14:34>     10      0.00673252      0.00087385      0.0
 <Oct12-2020> <08:14:37>     11      0.00326915      0.00048034      0.0
 <Oct12-2020> <08:14:40>     12      0.00084619      0.00013553      0.0
 <Oct12-2020> <08:14:43>     13      0.00058586      0.00005768      0.0
 <Oct12-2020> <08:14:46>     14      0.00043405      0.00004312      0.0
 <Oct12-2020> <08:14:49>     15      0.00010548      0.00001127      0.0
 <Oct12-2020> <08:14:52>     16      0.00004674      0.00000675      0.0
 <Oct12-2020> <08:14:55>     17      0.00007788      0.00000770      0.0
 <Oct12-2020> <08:14:58>     18      0.00001595      0.00000204      0.0
 <Oct12-2020> <08:15:01>     19      0.00000890      0.00000112      0.0
 <Oct12-2020> <08:15:04>     20      0.00000488      0.00000064      0.0
 <Oct12-2020> <08:15:05>  SCF converged
 <Oct12-2020> <08:15:07>     21      0.00000231      0.00000024      0.0
 <Oct12-2020> <08:15:08>  >>>> TOTEN
 <Oct12-2020> <08:15:12>  >>>> POPAN
 <Oct12-2020> <08:15:12>  >>>> DEBYE
 <Oct12-2020> <08:15:12>  >>>> ENGRAD
 <Oct12-2020> <08:15:24>  current energy                               -9.77334841 Hartree
 <Oct12-2020> <08:15:24>  energy change                      -0.00005142     0.00100000    T
 <Oct12-2020> <08:15:24>  constrained gradient max            0.00099379     0.00100000    T
 <Oct12-2020> <08:15:24>  constrained gradient rms            0.00027628     0.00066667    T
 <Oct12-2020> <08:15:24>  gradient max                        0.00099379
 <Oct12-2020> <08:15:24>  gradient rms                        0.00027628
 <Oct12-2020> <08:15:24>  cart. step max                      0.00270508     0.01000000    T
 <Oct12-2020> <08:15:24>  cart. step rms                      0.00087167     0.00666667    T
 <Oct12-2020> <08:15:24>  GEOMETRY CONVERGED
 <Oct12-2020> <08:15:24>  Calculating Energy Terms for Final Geometry
  Coordinates in Geometry Cycle 28
    Atom         X           Y           Z   (Angstrom)
    1.W         1.948040   -1.334617    3.037245
    2.W         2.223998    2.398071    4.440801
    3.O        -0.768864    4.218896    5.901369
    4.W         0.740534   -0.134121    5.951091
    5.W        -1.466255   -1.008417    3.362133
    6.W        -1.170883    2.727890    4.990639
    7.W        -2.777942    0.034029    6.120495
    8.O         0.497175   -1.549351    4.678560
    9.O         0.748767    1.760985    6.079727
   10.O         1.818899    0.490742    4.191143
   11.O         0.202537    2.754699    3.741064
   12.O         3.347005   -1.915712    3.967047
   13.O        -0.061624   -0.508628    2.330249
   14.O        -2.847773   -0.574370    2.373830
   15.O        -1.273345   -2.893922    2.946105
   16.O        -2.545579    3.204806    3.994085
   17.O        -0.693005   -0.498976    6.992954
   18.O        -2.141954    1.834408    6.505263
   19.O         1.922167    4.195258    5.231564
   20.O         2.695660   -0.539478    1.633012
   21.O        -3.354296   -0.568245    7.689538
   22.O        -1.269015    0.564579    4.571419
   23.O        -2.447986   -1.557246    5.070632
   24.O        -4.282343    0.515546    5.325892
   25.O         1.287039   -2.897373    2.374564
   26.O         2.887180    2.812392    2.861033
   27.O         2.090499   -0.649791    6.949772
   28.O         3.679437    2.164221    5.426667
   29.H         0.961411    4.322925    5.466169
   30.H        -0.279788   -3.027970    2.724547
 <Oct12-2020> <08:15:24>  >>>> CORORT
 <Oct12-2020> <08:15:24>  >>>> CLSMAT
 <Oct12-2020> <08:15:24>  >>>> ORTHON
 <Oct12-2020> <08:15:24>  >>>> GENPT
 <Oct12-2020> <08:15:25>  Block Length= 128
 <Oct12-2020> <08:15:25>  >>>> PTBAS
 <Oct12-2020> <08:15:29>  combining surface points...
 <Oct12-2020> <08:15:29>  combining surface points...
 <Oct12-2020> <08:15:29>  combining surface points...
 <Oct12-2020> <08:15:29>  >>>> CYCLE
 <Oct12-2020> <08:15:34>              |Error|         MaxErr       Wt(A-DIIS)
 <Oct12-2020> <08:15:34>      1      0.14852527      0.01236777
 <Oct12-2020> <08:15:37>      2      0.47281412      0.04519179    100.0
 <Oct12-2020> <08:15:40>      3      0.16311845      0.01511492    100.0
 <Oct12-2020> <08:15:43>      4      0.29937445      0.02909159    100.0
 <Oct12-2020> <08:15:46>      5      0.37026513      0.03712256    100.0
 <Oct12-2020> <08:15:50>      6      0.18619739      0.02216408    100.0
 <Oct12-2020> <08:15:53>      7      0.26119888      0.02767541    100.0
 <Oct12-2020> <08:15:56>      8      0.11792358      0.01307372     12.2
 <Oct12-2020> <08:15:59>      9      0.02726629      0.00349173      2.5
 <Oct12-2020> <08:16:02>     10      0.00696929      0.00088684      0.0
 <Oct12-2020> <08:16:05>     11      0.00320723      0.00046250      0.0
 <Oct12-2020> <08:16:08>     12      0.00081501      0.00012662      0.0
 <Oct12-2020> <08:16:11>     13      0.00057299      0.00005243      0.0
 <Oct12-2020> <08:16:14>     14      0.00034137      0.00004312      0.0
 <Oct12-2020> <08:16:17>     15      0.00010641      0.00001064      0.0
 <Oct12-2020> <08:16:20>     16      0.00004177      0.00000517      0.0
 <Oct12-2020> <08:16:23>     17      0.00008153      0.00000950      0.0
 <Oct12-2020> <08:16:26>     18      0.00001937      0.00000243      0.0
 <Oct12-2020> <08:16:28>     19      0.00000661      0.00000085      0.0
 <Oct12-2020> <08:16:30>  SCF converged
 <Oct12-2020> <08:16:31>     20      0.00000502      0.00000068      0.0
 <Oct12-2020> <08:16:34>  >>>> TOTEN
 <Oct12-2020> <08:16:43>  QTAIM: determining topology...
 <Oct12-2020> <08:16:51>  >>>> POPAN
 <Oct12-2020> <08:16:51>  >>>> DEBYE
 <Oct12-2020> <08:16:51>  >>>> AMETS
 <Oct12-2020> <08:16:51>  >>>> POPUL
 <Oct12-2020> <08:16:52>   Bond Energy          -9.77334841 a.u.
 <Oct12-2020> <08:16:52>   Bond Energy        -265.94634169 eV
 <Oct12-2020> <08:16:52>   Bond Energy       -6132.87       kcal/mol
 <Oct12-2020> <08:16:52>  >>>> ENHESS
 <Oct12-2020> <08:17:10>  === NUCLEUS:     1
 <Oct12-2020> <08:20:41>  === NUCLEUS:     2
 <Oct12-2020> <08:24:10>  === NUCLEUS:     3
 <Oct12-2020> <08:27:35>  === NUCLEUS:     4
 <Oct12-2020> <08:30:56>  === NUCLEUS:     5
 <Oct12-2020> <08:34:17>  === NUCLEUS:     6
 <Oct12-2020> <08:37:38>  === NUCLEUS:     7
 <Oct12-2020> <08:40:42>  === NUCLEUS:     8
 <Oct12-2020> <08:43:50>  === NUCLEUS:     9
 <Oct12-2020> <08:46:57>  === NUCLEUS:    10
 <Oct12-2020> <08:50:05>  === NUCLEUS:    11
 <Oct12-2020> <08:53:08>  === NUCLEUS:    12
 <Oct12-2020> <08:56:15>  === NUCLEUS:    13
 <Oct12-2020> <08:59:23>  === NUCLEUS:    14
 <Oct12-2020> <09:02:34>  === NUCLEUS:    15
 <Oct12-2020> <09:05:42>  === NUCLEUS:    16
 <Oct12-2020> <09:08:45>  === NUCLEUS:    17
 <Oct12-2020> <09:11:57>  === NUCLEUS:    18
 <Oct12-2020> <09:15:05>  === NUCLEUS:    19
 <Oct12-2020> <09:18:12>  === NUCLEUS:    20
 <Oct12-2020> <09:21:15>  === NUCLEUS:    21
 <Oct12-2020> <09:24:18>  === NUCLEUS:    22
 <Oct12-2020> <09:27:25>  === NUCLEUS:    23
 <Oct12-2020> <09:30:37>  === NUCLEUS:    24
 <Oct12-2020> <09:33:49>  === NUCLEUS:    25
 <Oct12-2020> <09:36:56>  === NUCLEUS:    26
 <Oct12-2020> <09:39:59>  === NUCLEUS:    27
 <Oct12-2020> <09:43:07>  === NUCLEUS:    28
 <Oct12-2020> <09:46:10>  === NUCLEUS:    29
 <Oct12-2020> <09:49:17>  === NUCLEUS:    30
 <Oct12-2020> <09:52:29>  >>>> CALC_HESS_PMAT
 <Oct12-2020> <09:53:18>  >>>> CALC_HESS_WMAT
 <Oct12-2020> <09:53:27>  NORMAL TERMINATION
 <Oct12-2020> <09:53:27>  END
