
 *******************************************************************************
 *                                                                             *
 *  -------------------------------------                                      *
 *   Amsterdam Density Functional  (ADF)         2019                          *
 *  -------------------------------------                                      *
 *                                               r79301 2019-11-09             *
 *                                                                             *
 *                                                                             *
 *                            =====================                            *
 *                            |                   |                            *
 *                            |     D I R A C     |                            *
 *                            |                   |                            *
 *                            =====================                            *
 *                                                                             *
 *                                                                             *
 *   Online information and documentation:  https://www.scm.com/support/       *
 *   E-mail:  support@scm.com   info@scm.com                                   *
 *                                                                             *
 *   Scientific publications using ADF results must be properly referenced     *
 *   See the User Manuals (or the web site) for recommended citations          *
 *   The terms and conditions of the End User License Agreement apply to       *
 *   the use of ADF, https://www.scm.com/license-terms/                        *
 *                                                                             *
 **********************  x86_64_linux_intel / intelmpi  ************************
 
 
 
  
 DIRAC 2019  RunTime: Oct12-2020 09:53:28  Nodes: 1  Procs: 1

 Temporary files are created in /scratch/kid_0.842345776 (0x58465342)

1
 HYDROGEN ATOM RELATIVISTIC, Point Nuc, A and c from libtc   
 N J RN H ZN XION ANUC CLIGHT
 5000    1100.00000000197.36710137  1.00000000  0.00000000    1.007825  0.1370360E+03
  PH   PHI     EPS        DEL        DELRVR
  0.30  0.30     2500.00  0.00001000  0.00001000
 IDIRC  NC1  NDEBU NPRIN  IPUN IRCOR IWCOR
   1   300     0     0     0     0     0
   XALPHA      XLATTER      RNUC
  0.70000000  0.00000000  0.00000000 Point Charge
   XN   XL   XJ      XE          XZ      XDELL
  1.0  0.0  0.5      -1.000       1.000     0.00000
 ICORP=  0  NPCL=  0  DEMP=0.00  PEPS=0.000000
 R(1)=  0.1000000E-08 D=  0.1005080E+01 RNUC=  0.0000000E+00
 converged at cycle   32  DENSITY AVERAGING    0.2400
  MAXIMUM ERROR IN R.V(R) IS   0.79874357E-05
 Q,EY,EV,EZ,ESUM,ETOT,RHO  0.100000E+01 -0.266614E+00 -0.619969E+00 -0.910779E+00 -0.203940E+00 -0.415998E+00  0.337036E-17


 DIRAC CALCULATION
1                    HYDROGEN ATOM RELATIVISTIC, Point Nuc, A and c from libtc


 EXCHANGE COEFFICIENT=  0.7000000           TAIL CORRECTION=  0.           NUCLEAR RADIUS=  0.000E+00
0                       ORBITAL    N    L    J     ELECTRONS     EIGENVALUE                DELTA OF EIGENV.

                          1S1/2  1.0  0.0  0.5     1.000       -0.2039397E+00                 0.2720093E-06


                                        NUCLEAR CHARGE=    1.000000
                            INTEGRAL OF CHARGE DENSITY=    1.000000
                           SUM OF THE ORBITAL ENERGIES=     -0.2039
                                          TOTAL ENERGY=     -0.4160
                                        KINETIC ENERGY=      0.4160
                             NUCLEAR ATTRACTION ENERGY=     -0.9108
                             ELECTRON REPULSION ENERGY=      0.2787
                                       EXCHANGE ENERGY=     -0.2000

 *******************************************************************************

                             D I R A C   E X I T
 NORMAL TERMINATION



 =================
 Timing Statistics
 =================
  
 Total Used :                     CPU=        0.06      System=        0.00     Elapsed=        0.07

 Calls  Section                     ( Mean, Percentage )
 ---------------------------------------------------------------------------------------------------
     2  ><      ................      0.00    0.00             0.00    0.00             0.00    0.01
     1  EXIT PROCEDURE .........      0.06  100.00             0.00    0.00             0.07   99.99


 Currently Open Files (EXIT00)
 ====================

 Unit    Access Format  Status   Type       Ident (file)
 -------------------------------------------------------
   3      SEQ    FORM   TRANSP  NORMAL      LOGFILE
                                          ( logfile )
 
Create H   file=TZP-H
XC
  GGA PBE
End
relativistic ZORA
Corepotentials t12.rel
End

 *******************************************************************************
 *                                                                             *
 *  -------------------------------------                                      *
 *   Amsterdam Density Functional  (ADF)         2019                          *
 *  -------------------------------------                                      *
 *                                               r79301 2019-11-09             *
 *                                                                             *
 *                                                                             *
 *                              =================                              *
 *                              |               |                              *
 *                              |     A D F     |                              *
 *                              |               |                              *
 *                              =================                              *
 *                                                                             *
 *                                                                             *
 *   Online information and documentation:  https://www.scm.com/support/       *
 *   E-mail:  support@scm.com   info@scm.com                                   *
 *                                                                             *
 *   Scientific publications using ADF results must be properly referenced     *
 *   See the User Manuals (or the web site) for recommended citations          *
 *   The terms and conditions of the End User License Agreement apply to       *
 *   the use of ADF, https://www.scm.com/license-terms/                        *
 *                                                                             *
 **********************  x86_64_linux_intel / intelmpi  ************************
 
 
 
  
 ADF 2019  RunTime: Oct12-2020 09:53:28  Nodes: 1  Procs: 1

 Temporary files are created in /scratch/kid_0.32768969 (0x58465342)

 Hydrogen (TZP)



 ===========================
 A T T A C H E D   F I L E S
 ===========================
  
 CREATE - Data File:    TZP-H
                        Hydrogen (TZP)
 Core Potentials:
         file : t12.rel



 ===============================
 M O D E L   P A R A M E T E R S
 ===============================
  
 DENSITY FUNCTIONAL POTENTIAL (scf)
    LDA:                               PW92                                    == Not Default ==
    Gradient Corrections:              PBEc PBEx                               == Not Default ==

 SPIN  (restricted / unrestr.)
    Molecule:                          Restricted                               

 OTHER ASPECTS
    Relativistic Corrections:          scalar (ZORA,MAPA)                      == Not Default ==

    Nuclear Charge Density Model:      Point Charge Nuclei                      
    Core Treatment:                    Frozen Orbital(s)                        

    Hyperfine or Zeeman Interaction:   ---                                      



 =====================================
 S Y M M E T R Y ,   E L E C T R O N S
 =====================================
  
 Symmetry: ATOM

 Irreducible Representations, including subspecies
 -------------------------------------------------
 S
 P:x  P:y  P:z
 D:z2  D:x2-y2  D:xy  D:xz  D:yz
 F:z3  F:z  F:xyz  F:z2x  F:z2y  F:x  F:y


 Configuration of Valence Electrons
 ==================================

          Occupation Numbers
          -------------------------------------------------
 S        1
 P        0
 D        0
 F        0
          -------------------------------------------------

 Total:   1

 Net Charge: 0 (Nuclei minus Electrons)

 Preset values for MO occupations will be applied through SCF cycle no. 1000000
 Thereafter, the program will assign electrons to MOs that are spatially
 similar to the occupied MOs in a "reference" cycle ("KeepOrbitals").
 The reference cycle is always the PREVIOUS cycle: it will evolve with
 the SCF procedure.



 ================================
 (Slater-type)  F U N C T I O N S  ***  (Basis and Fit)  ***
 ================================
  

 Atom Type    1  (H)
 ==============

 Valence Basis Sets:   4
 -----------------------
   1 S    0.690000
   1 S    0.920000
   1 S    1.580000
   2 P    1.250000


 BAS: List of all Elementary Cartesian Basis Functions
 =====================================================

 The numbering in the list below (to the right of the function characteristics) is referred
 to in print-outs of MO eigenvectors and Mulliken populations in the BAS representation
 (as contrasted to the SFO representation).

 Notes:
 1. The functions are characterized by a polynomial prefactor (powers of x,y,z and r) and
    an exponential decay factor alpha.
 2. Since the basis sets are specific for an atom TYPE, the individual functions occur on
    all atoms of that type.
 3. The word 'Core' in the left margin signals that it is a Core Function (CF) : not a
    degree of freedom in the valence set, but only used to ensure orthogonalization of
    the other valence basis functions on the frozen Core Orbitals.


 (power of) X  Y  Z  R     Alpha  on Atom
            ==========     =====     ==========

 H                                    1
                                  ---------------------------------------------------------------------------
            0  0  0  0     0.690      1
            0  0  0  0     0.920      2
            0  0  0  0     1.580      3
            1  0  0  0     1.250      4
            0  1  0  0     1.250      5
            0  0  1  0     1.250      6

 Total number of charge fitting functions (nprimf)        50
 Total number of Cartesian basis functions (naos)          6
 Total number of Cartesian core functions  (ncos)          0



 BAS: List of all Elementary Cartesian Basis Functions
 =====================================================

 The numbering in the list below (to the right of the function characteristics) is referred
 to in print-outs of MO eigenvectors and Mulliken populations in the BAS representation
 (as contrasted to the SFO representation).

 Notes:
 1. The functions are characterized by a polynomial prefactor (powers of x,y,z and r) and
    an exponential decay factor alpha.
 2. Since the basis sets are specific for an atom TYPE, the individual functions occur on
    all atoms of that type.
 3. The word 'Core' in the left margin signals that it is a Core Function (CF) : not a
    degree of freedom in the valence set, but only used to ensure orthogonalization of
    the other valence basis functions on the frozen Core Orbitals.


 (power of) X  Y  Z  R     Alpha  on Atom
            ==========     =====     ==========

 H                                    1
                                  ---------------------------------------------------------------------------
            0  0  0  0     0.690      1
            0  0  0  0     0.920      2
            0  0  0  0     1.580      3
            1  0  0  0     1.250      4
            0  1  0  0     1.250      5
            0  0  1  0     1.250      6
1
 ***************************************************************************************************



                                              ***********************
                                              *  T E C H N I C A L  *
                                              ***********************
  



 =============================================================
 P A R A L L E L I Z A T I O N  and  V E C T O R I Z A T I O N
 =============================================================
  
 Nr of parallel processes:                                1
 Maximum vector length in NumInt loops:                 128



 =====================
 S C F   U P D A T E S
 =====================
  
 Max. nr. of cycles:                               300
 Convergence criterion:                              0.0000000100
   secondary criterion:                              0.0000000100

 Mix parameter (when DIIS does not apply):           0.2000000000
 Special mix parameter for the first cycle:          1.0000000000
 Mixed ADIIS+SDIIS will be used                  
    Max number of expansion vectors:                10
    Pure ADIIS when Max([F,P]) is above              0.1000000000
    Pure SDIIS when Max([F,P]) is below              0.0010000000
 Automatic ElectronSmearing (in case of problematic SCF convergence) disabled



 =================
 P R E C I S I O N  ***  (General: NumInt, NeglectFunctionTails, ...)  ***
 =================
  

 NumInt:           Target precision:                12.0000000000
 -------           Initial precision:               10.0000000000
                   Min. precision (optimization):   10.0000000000

 Neglect Functions:          Basis functions:        0.1000000000E-13
 ------------------          Fit functions:          0.1000000000E-13



 ===========================
 L I N E A R   S C A L I N G
 ===========================
  

 Cut-off radii density fit:                        0.1000000000E-97
 Overlap cut-off criterion AO matrix elements:     0.1000000000E-97
 Cut-offs for Coulomb potential and fitted density:0.1000000000E-97
 Cut-off criterion for Coulomb multipole terms:    0.1000000000E-97
 Progressive Convergence parameter:                 0.000000000    
1
 ***************************************************************************************************



                                            ***************************
                                            *  C O M P U T A T I O N  *
                                            ***************************
  

 Number of elements of the density matrix on this node (used, total):        21        21



 ===========================================
 Numerical Integration : Fuzzy Cells (Becke)
 ===========================================
  
 Becke grid quality: VERYGOOD       
  
 Lebedev angular grid order:             min:  13 max:  41
 Nr. of radial points:                   min:  64 max:  64

 Total nr. of points:         64
 Nr. of blocks:                1
 Block length:                64
 Nr. of dummy points:          0


 Test of Precision of the Numerical Integration Grid
 ===================================================

 Integral of the Total Core Density:                   0.00000000000000



 ========================
 Density Fitting (zlmFit)
 ========================
  
 ZlmFit Fit Quality: VERYGOOD       
  
 Max L-expansion:                        min:   0 max:   0
 Nr. of radial interpolation points:     min: 120 max: 120



 =====
 S C F  ***  ScaSCF  ***
 =====
  

 CYCLE    1
 SCF Error: norm([F,P])=      0.000000000000, max([F,P])=      0.000000000000
 orbitals (Q,E):
 ---------------
 S :1...3            ( 1.00    -0.5000)  ( 0.00    -0.0900)  ( 0.00     1.2936)
 P :1...1            ( 0.00     0.1562)

 CYCLE    2
 SCF Error: norm([F,P])=      0.031537872292, max([F,P])=      0.030110494752
 orbitals (Q,E):
 ---------------
 S :1...2            ( 1.00    -0.2218)  ( 0.00     0.1019)
 P :1...1            ( 0.00     0.4189)

 CYCLE    3
  SDIIS (wt  0.000):  0.1996  0.8004
 A-DIIS (wt  1.000):  0.0000  1.0000
  DIIS coefficients:  0.0000  1.0000
 SCF Error: norm([F,P])=      0.008617989401, max([F,P])=      0.008343029399
 orbitals (Q,E):
 ---------------
 S :1...2            ( 1.00    -0.2422)  ( 0.00     0.0889)
 P :1...1            ( 0.00     0.4024)

 CYCLE    4
  SDIIS (wt  0.993):  0.1666  0.8334
 A-DIIS (wt  0.007):  0.0000  1.0000
  DIIS coefficients:  0.1654  0.8346
 SCF Error: norm([F,P])=      0.001732350026, max([F,P])=      0.001718616814
 orbitals (Q,E):
 ---------------
 S :1...2            ( 1.00    -0.2385)  ( 0.00     0.0908)
 P :1...1            ( 0.00     0.4054)

 CYCLE    5
  SDIIS (wt  1.000):  0.0236  0.9764
  DIIS coefficients:  0.0236  0.9764
 SCF Error: norm([F,P])=      0.000043673449, max([F,P])=      0.000039769875
 orbitals (Q,E):
 ---------------
 S :1...2            ( 1.00    -0.2386)  ( 0.00     0.0908)
 P :1...1            ( 0.00     0.4054)

 CYCLE    6
  SDIIS (wt  1.000): -0.0577  1.0577
  DIIS coefficients: -0.0577  1.0577
 SCF Error: norm([F,P])=      0.000002383805, max([F,P])=      0.000002158128
 orbitals (Q,E):
 ---------------
 S :1...2            ( 1.00    -0.2386)  ( 0.00     0.0908)
 P :1...1            ( 0.00     0.4054)

 CYCLE    7
  SDIIS (wt  1.000): -0.0032  1.0032
  DIIS coefficients: -0.0032  1.0032
 SCF Error: norm([F,P])=      0.000000007721, max([F,P])=      0.000000007228
 orbitals (Q,E):
 ---------------
 S :1...2            ( 1.00    -0.2386)  ( 0.00     0.0908)
 P :1...1            ( 0.00     0.4054)

 SCF CONVERGED

 CYCLE    8
1
 ***************************************************************************************************



                                                *******************
                                                *  R E S U L T S  *
                                                *******************
  
 *** Using FIT density in Focky
  SDIIS (wt  1.000):  0.0192  0.9808
  DIIS coefficients:  0.0192  0.9808
 SCF Error: norm([F,P])=      0.000000000151, max([F,P])=      0.000000000141

 Scaled ZORA Orbital Energies, per Irrep and Spin:
 =================================================
                        Occup              E (au)              E (eV)       Diff (eV) with prev. cycle
                        -----      --------------------        ------       --------------------------
 S
               1        1.000     -0.23861775226993E+00        -6.493               7.43E-09
               2        0.000      0.90791701709251E-01         2.471
               3        0.000      0.15217530108908E+01        41.409
 P
               1        0.000      0.40537978060393E+00        11.031


 Partially Occupied:
               1 S                -0.23861775226993E+00
  
 LUMO :        2 S                 0.90791701709251E-01
  


 Orbital Energies, all Irreps
 ========================================

 Irrep        no.  (spin)   Occup              E (au)                E (eV)
 ---------------------------------------------------------------------------
 S             1             1.00       -0.23861775226993E+00        -6.4931
 S             2             0.00        0.90791701709251E-01         2.4706
 P             1             0.00        0.40537978060393E+00        11.0309
 S             3             0.00        0.15217530108908E+01        41.4090


 All Electron Calculation, thus no Orbital Energies of the Core Orbitals are calculated



 =======================================
 M U L L I K E N   P O P U L A T I O N S
 =======================================
  
 The survey below gives for each atom:
 a) the total charge (Z minus electrons)
 b) the net spin polarization (nr of electrons spin-A minus spin-B)
 c) for each spin the atomic electron valence density (integrated) per L-value.

 Atom              Charge    Spin density          S         P         D         F
 ----              ------    ------------       ------    ------    ------    ------
 1 H              -0.0000                       1.0000    0.0000    0.0000    0.0000

 Populations of individual BAS functions
 ----------------------------------------
 1 H            0.2104  0.6788  0.1107  0.0000  0.0000  0.0000

 Gross Charges per Atom (Z minus electrons)
 ==========================================
            -0.0000
 Net Total: -0.00000000



 =======================================================================
 Electrostatic potential at the Nuclei due to electrons and other nuclei
 =======================================================================
  
         Atom                  Potential
         ----                  ---------
     1)   H                   0.94468022
 
 
 ========================
 No memory problems found
 ========================
 
 Maximum number of active allocate calls:         306
 
 *******************************************************************************

                             A D F   E X I T
 NORMAL TERMINATION



 =================
 Timing Statistics
 =================
  
 Total Used :                     CPU=        0.33      System=        0.02     Elapsed=        0.38

 Calls  Section                     ( Mean, Percentage )
 ---------------------------------------------------------------------------------------------------
     3  ><      ................      0.00    0.00             0.00   16.67             0.00    1.13
     1  INIT    ................      0.07   20.73             0.00   16.67             0.08   20.33
     1  GEOMET  ................      0.01    2.44             0.01   50.00             0.02    6.02
     1  INPUTA  ................      0.00    1.22             0.00    0.00             0.00    0.88
     1  MAINSY  ................      0.01    2.44             0.00    0.00             0.01    3.39
     1  SYMFIT  ................      0.00    0.00             0.00   16.67             0.00    0.42
     1  CORORT  ................      0.00    0.00             0.00    0.00             0.00    0.32
     1  SYMORB  ................      0.00    0.00             0.00    0.00             0.00    0.19
     1  CLSMAT  ................      0.00    1.22             0.00    0.00             0.01    1.36
     1  ORTHON  ................      0.00    1.22             0.00    0.00             0.00    1.23
     1  GENPT   ................      0.01    3.66             0.00    0.00             0.01    3.25
     1  PTBAS   ................      0.00    1.22             0.00    0.00             0.01    1.35
     8  FOCKY   ................      0.02   50.00             0.00    0.00             0.02   44.52
     8  FOCKTR  ................      0.00    4.88             0.00    0.00             0.00    1.24
     8  SDIIS   ................      0.00    2.44             0.00    0.00             0.00    5.66
     1  COREPS  ................      0.01    3.66             0.00    0.00             0.01    3.65
     1  POPAN   ................      0.00    1.22             0.00    0.00             0.00    1.21
     1  DEBYE   ................      0.00    0.00             0.00    0.00             0.00    0.48
     1  EXIT PROCEDURE .........      0.01    3.66             0.00    0.00             0.01    3.37


 Currently Open Files (EXIT00)
 ====================

 Unit    Access Format  Status   Type       Ident (file)
 -------------------------------------------------------
   3      SEQ    FORM   TRANSP  NORMAL      LOGFILE
                                          ( logfile )

 ***************************************************************************************************
 (LOGFILE)
 <Oct12-2020> <09:53:28>  DIRAC 2019  RunTime: Oct12-2020 09:53:28  Nodes: 1  Procs: 1
 <Oct12-2020> <09:53:28>  NORMAL TERMINATION
 <Oct12-2020> <09:53:28>  END
 <Oct12-2020> <09:53:28>  ADF 2019  RunTime: Oct12-2020 09:53:28  Nodes: 1  Procs: 1
 <Oct12-2020> <09:53:28>  Hydrogen (TZP)
 <Oct12-2020> <09:53:28>  RunType   : CREATE
 <Oct12-2020> <09:53:28>  Net Charge: 0 (Nuclei minus Electrons)
 <Oct12-2020> <09:53:28>  Symmetry  : ATOM
  Coordinates
    Atom         X           Y           Z   (Angstrom)
    1.H         0.000000    0.000000    0.000000
 <Oct12-2020> <09:53:28>  >>>> CORORT
 <Oct12-2020> <09:53:28>  >>>> CLSMAT
 <Oct12-2020> <09:53:28>  >>>> ORTHON
 <Oct12-2020> <09:53:28>  >>>> GENPT
 <Oct12-2020> <09:53:28>  Block Length=  64
 <Oct12-2020> <09:53:28>  >>>> PTBAS
 <Oct12-2020> <09:53:28>  >>>> CYCLE
 <Oct12-2020> <09:53:28>              |Error|         MaxErr       Wt(A-DIIS)
 <Oct12-2020> <09:53:28>      1      0.00000000      0.00000000
 <Oct12-2020> <09:53:29>      2      0.03153787      0.03011049
 <Oct12-2020> <09:53:29>      3      0.00861799      0.00834303    100.0
 <Oct12-2020> <09:53:29>      4      0.00173235      0.00171862      0.7
 <Oct12-2020> <09:53:29>      5      0.00004367      0.00003977      0.0
 <Oct12-2020> <09:53:29>      6      0.00000238      0.00000216      0.0
 <Oct12-2020> <09:53:29>      7      0.00000001      0.00000001      0.0
 <Oct12-2020> <09:53:29>  SCF converged
 <Oct12-2020> <09:53:29>      8      0.00000000      0.00000000      0.0
 <Oct12-2020> <09:53:29>  >>>> POPAN
 <Oct12-2020> <09:53:29>  >>>> DEBYE
 <Oct12-2020> <09:53:29>  NORMAL TERMINATION
 <Oct12-2020> <09:53:29>  END

 *******************************************************************************
 *                                                                             *
 *  -------------------------------------                                      *
 *   Amsterdam Density Functional  (ADF)         2019                          *
 *  -------------------------------------                                      *
 *                                               r79301 2019-11-09             *
 *                                                                             *
 *                                                                             *
 *                            =====================                            *
 *                            |                   |                            *
 *                            |     D I R A C     |                            *
 *                            |                   |                            *
 *                            =====================                            *
 *                                                                             *
 *                                                                             *
 *   Online information and documentation:  https://www.scm.com/support/       *
 *   E-mail:  support@scm.com   info@scm.com                                   *
 *                                                                             *
 *   Scientific publications using ADF results must be properly referenced     *
 *   See the User Manuals (or the web site) for recommended citations          *
 *   The terms and conditions of the End User License Agreement apply to       *
 *   the use of ADF, https://www.scm.com/license-terms/                        *
 *                                                                             *
 **********************  x86_64_linux_intel / intelmpi  ************************
 
 
 
  
 DIRAC 2019  RunTime: Oct12-2020 09:53:29  Nodes: 1  Procs: 1

 Temporary files are created in /scratch/kid_0.287605375 (0x58465342)

1
 OXYGEN ATOM 1s CORE RELATIVISTIC, Point Nuc, A and c from li
 N J RN H ZN XION ANUC CLIGHT
 5000    4100.00000000197.36710137  8.00000000  0.00000000   15.994914  0.1370360E+03
  PH   PHI     EPS        DEL        DELRVR
  0.30  0.30     2500.00  0.00001000  0.00001000
 IDIRC  NC1  NDEBU NPRIN  IPUN IRCOR IWCOR
   1   300     0     0     0     0     1
   XALPHA      XLATTER      RNUC
  0.70000000  0.00000000  0.00000000 Point Charge
   XN   XL   XJ      XE          XZ      XDELL
  1.0  0.0  0.5      -5.000       2.000     0.00000
  2.0  0.0  0.5      -1.000       2.000     0.00000
  2.0  1.0  0.5      -1.000       2.000     0.00000
  2.0  1.0  1.5      -1.000       2.000     0.00000
 ICORP=  0  NPCL=  0  DEMP=0.00  PEPS=0.000000
 R(1)=  0.1000000E-08 D=  0.1005080E+01 RNUC=  0.0000000E+00
 converged at cycle   28  DENSITY AVERAGING    0.2400
  MAXIMUM ERROR IN R.V(R) IS   0.81125670E-05
 Q,EY,EV,EZ,ESUM,ETOT,RHO  0.800000E+01 -0.101247E+02 -0.114961E+03 -0.177573E+03 -0.405053E+02 -0.743427E+02  0.414766E-14


 DIRAC CALCULATION
1                    OXYGEN ATOM 1s CORE RELATIVISTIC, Point Nuc, A and c from libtc


 EXCHANGE COEFFICIENT=  0.7000000           TAIL CORRECTION=  0.           NUCLEAR RADIUS=  0.000E+00
0                       ORBITAL    N    L    J     ELECTRONS     EIGENVALUE                DELTA OF EIGENV.

                          1S1/2  1.0  0.0  0.5     2.000       -0.1880014E+02                 0.7264358E-06
                          2S1/2  2.0  0.0  0.5     2.000       -0.8412236E+00                 0.5932752E-05
                          2P1/2  2.0  1.0  0.5     2.000       -0.3063203E+00                 0.5998471E-05
                          2P3/2  2.0  1.0  1.5     2.000       -0.3049609E+00                 0.5986971E-05


                                        NUCLEAR CHARGE=    8.000000
                            INTEGRAL OF CHARGE DENSITY=    8.000000
                           SUM OF THE ORBITAL ENERGIES=    -40.5053
                                          TOTAL ENERGY=    -74.3427
                                        KINETIC ENERGY=     74.4552
                             NUCLEAR ATTRACTION ENERGY=   -177.5730
                             ELECTRON REPULSION ENERGY=     36.3686
                                       EXCHANGE ENERGY=     -7.5935

 *******************************************************************************

                             D I R A C   E X I T
 NORMAL TERMINATION



 =================
 Timing Statistics
 =================
  
 Total Used :                     CPU=        0.10      System=        0.00     Elapsed=        0.11

 Calls  Section                     ( Mean, Percentage )
 ---------------------------------------------------------------------------------------------------
     2  ><      ................      0.00    0.00             0.00    0.00             0.00    0.00
     1  EXIT PROCEDURE .........      0.10  100.00             0.00    0.00             0.11  100.00


 Currently Open Files (EXIT00)
 ====================

 Unit    Access Format  Status   Type       Ident (file)
 -------------------------------------------------------
   3      SEQ    FORM   TRANSP  NORMAL      LOGFILE
                                          ( logfile )
 
Create O   file=TZP-O.1s
XC
  GGA PBE
End
relativistic ZORA
Corepotentials t12.rel
End

 *******************************************************************************
 *                                                                             *
 *  -------------------------------------                                      *
 *   Amsterdam Density Functional  (ADF)         2019                          *
 *  -------------------------------------                                      *
 *                                               r79301 2019-11-09             *
 *                                                                             *
 *                                                                             *
 *                              =================                              *
 *                              |               |                              *
 *                              |     A D F     |                              *
 *                              |               |                              *
 *                              =================                              *
 *                                                                             *
 *                                                                             *
 *   Online information and documentation:  https://www.scm.com/support/       *
 *   E-mail:  support@scm.com   info@scm.com                                   *
 *                                                                             *
 *   Scientific publications using ADF results must be properly referenced     *
 *   See the User Manuals (or the web site) for recommended citations          *
 *   The terms and conditions of the End User License Agreement apply to       *
 *   the use of ADF, https://www.scm.com/license-terms/                        *
 *                                                                             *
 **********************  x86_64_linux_intel / intelmpi  ************************
 
 
 
  
 ADF 2019  RunTime: Oct12-2020 09:53:29  Nodes: 1  Procs: 1

 Temporary files are created in /scratch/kid_0.302125063 (0x58465342)

 Oxygen (TZP, 1s frozen)



 ===========================
 A T T A C H E D   F I L E S
 ===========================
  
 CREATE - Data File:    TZP-O.1s
                        Oxygen (TZP, 1s frozen)
 Core Potentials:
         file : t12.rel



 ===============================
 M O D E L   P A R A M E T E R S
 ===============================
  
 DENSITY FUNCTIONAL POTENTIAL (scf)
    LDA:                               PW92                                    == Not Default ==
    Gradient Corrections:              PBEc PBEx                               == Not Default ==

 SPIN  (restricted / unrestr.)
    Molecule:                          Restricted                               

 OTHER ASPECTS
    Relativistic Corrections:          scalar (ZORA,MAPA)                      == Not Default ==

    Nuclear Charge Density Model:      Point Charge Nuclei                      
    Core Treatment:                    Frozen Orbital(s)                        

    Hyperfine or Zeeman Interaction:   ---                                      



 =====================================
 S Y M M E T R Y ,   E L E C T R O N S
 =====================================
  
 Symmetry: ATOM

 Irreducible Representations, including subspecies
 -------------------------------------------------
 S
 P:x  P:y  P:z
 D:z2  D:x2-y2  D:xy  D:xz  D:yz
 F:z3  F:z  F:xyz  F:z2x  F:z2y  F:x  F:y


 Configuration of Valence Electrons
 ==================================

          Occupation Numbers
          -------------------------------------------------
 S        2
 P        4
 D        0
 F        0
          -------------------------------------------------

 Total:   6

 Net Charge: 0 (Nuclei minus Electrons)

 Preset values for MO occupations will be applied through SCF cycle no. 1000000
 Thereafter, the program will assign electrons to MOs that are spatially
 similar to the occupied MOs in a "reference" cycle ("KeepOrbitals").
 The reference cycle is always the PREVIOUS cycle: it will evolve with
 the SCF procedure.



 ================================
 (Slater-type)  F U N C T I O N S  ***  (Basis and Fit)  ***
 ================================
  

 Atom Type    1  (O)
 ==============

 Valence Basis Sets:   8
 -----------------------
   1 S    7.360000
   2 S    1.720000
   2 S    2.880000
   2 S    7.580000
   2 P    1.120000
   2 P    2.080000
   2 P    4.080000
   3 D    2.000000

 Frozen Core Shells
 ------------------
    S:  1


 BAS: List of all Elementary Cartesian Basis Functions
 =====================================================

 The numbering in the list below (to the right of the function characteristics) is referred
 to in print-outs of MO eigenvectors and Mulliken populations in the BAS representation
 (as contrasted to the SFO representation).

 Notes:
 1. The functions are characterized by a polynomial prefactor (powers of x,y,z and r) and
    an exponential decay factor alpha.
 2. Since the basis sets are specific for an atom TYPE, the individual functions occur on
    all atoms of that type.
 3. The word 'Core' in the left margin signals that it is a Core Function (CF) : not a
    degree of freedom in the valence set, but only used to ensure orthogonalization of
    the other valence basis functions on the frozen Core Orbitals.


 (power of) X  Y  Z  R     Alpha  on Atom
            ==========     =====     ==========

 O                                    1
                                  ---------------------------------------------------------------------------
    Core    0  0  0  0     7.360      1
            0  0  0  1     1.720      2
            0  0  0  1     2.880      3
            0  0  0  1     7.580      4
            1  0  0  0     1.120      5
            0  1  0  0     1.120      6
            0  0  1  0     1.120      7
            1  0  0  0     2.080      8
            0  1  0  0     2.080      9
            0  0  1  0     2.080     10
            1  0  0  0     4.080     11
            0  1  0  0     4.080     12
            0  0  1  0     4.080     13
            2  0  0  0     2.000     14
            1  1  0  0     2.000     15
            1  0  1  0     2.000     16
            0  2  0  0     2.000     17
            0  1  1  0     2.000     18
            0  0  2  0     2.000     19

 Total number of charge fitting functions (nprimf)        82
 Total number of Cartesian basis functions (naos)         19
 Total number of Cartesian core functions  (ncos)          1



 BAS: List of all Elementary Cartesian Basis Functions
 =====================================================

 The numbering in the list below (to the right of the function characteristics) is referred
 to in print-outs of MO eigenvectors and Mulliken populations in the BAS representation
 (as contrasted to the SFO representation).

 Notes:
 1. The functions are characterized by a polynomial prefactor (powers of x,y,z and r) and
    an exponential decay factor alpha.
 2. Since the basis sets are specific for an atom TYPE, the individual functions occur on
    all atoms of that type.
 3. The word 'Core' in the left margin signals that it is a Core Function (CF) : not a
    degree of freedom in the valence set, but only used to ensure orthogonalization of
    the other valence basis functions on the frozen Core Orbitals.


 (power of) X  Y  Z  R     Alpha  on Atom
            ==========     =====     ==========

 O                                    1
                                  ---------------------------------------------------------------------------
    Core    0  0  0  0     7.360      1
            0  0  0  1     1.720      2
            0  0  0  1     2.880      3
            0  0  0  1     7.580      4
            1  0  0  0     1.120      5
            0  1  0  0     1.120      6
            0  0  1  0     1.120      7
            1  0  0  0     2.080      8
            0  1  0  0     2.080      9
            0  0  1  0     2.080     10
            1  0  0  0     4.080     11
            0  1  0  0     4.080     12
            0  0  1  0     4.080     13
            2  0  0  0     2.000     14
            1  1  0  0     2.000     15
            1  0  1  0     2.000     16
            0  2  0  0     2.000     17
            0  1  1  0     2.000     18
            0  0  2  0     2.000     19
1
 ***************************************************************************************************



                                              ***********************
                                              *  T E C H N I C A L  *
                                              ***********************
  



 =============================================================
 P A R A L L E L I Z A T I O N  and  V E C T O R I Z A T I O N
 =============================================================
  
 Nr of parallel processes:                                1
 Maximum vector length in NumInt loops:                 128



 =====================
 S C F   U P D A T E S
 =====================
  
 Max. nr. of cycles:                               300
 Convergence criterion:                              0.0000000100
   secondary criterion:                              0.0000000100

 Mix parameter (when DIIS does not apply):           0.2000000000
 Special mix parameter for the first cycle:          1.0000000000
 Mixed ADIIS+SDIIS will be used                  
    Max number of expansion vectors:                10
    Pure ADIIS when Max([F,P]) is above              0.1000000000
    Pure SDIIS when Max([F,P]) is below              0.0010000000
 Automatic ElectronSmearing (in case of problematic SCF convergence) disabled



 =================
 P R E C I S I O N  ***  (General: NumInt, NeglectFunctionTails, ...)  ***
 =================
  

 NumInt:           Target precision:                12.0000000000
 -------           Initial precision:               10.0000000000
                   Min. precision (optimization):   10.0000000000

 Neglect Functions:          Basis functions:        0.1000000000E-13
 ------------------          Fit functions:          0.1000000000E-13



 ===========================
 L I N E A R   S C A L I N G
 ===========================
  

 Cut-off radii density fit:                        0.1000000000E-97
 Overlap cut-off criterion AO matrix elements:     0.1000000000E-97
 Cut-offs for Coulomb potential and fitted density:0.1000000000E-97
 Cut-off criterion for Coulomb multipole terms:    0.1000000000E-97
 Progressive Convergence parameter:                 0.000000000    
1
 ***************************************************************************************************



                                            ***************************
                                            *  C O M P U T A T I O N  *
                                            ***************************
  

 Number of elements of the density matrix on this node (used, total):       190       190



 ===========================================
 Numerical Integration : Fuzzy Cells (Becke)
 ===========================================
  
 Becke grid quality: VERYGOOD       
  
 Lebedev angular grid order:             min:  13 max:  41
 Nr. of radial points:                   min:  68 max:  68

 Total nr. of points:         68
 Nr. of blocks:                1
 Block length:                68
 Nr. of dummy points:          0


 Test of Precision of the Numerical Integration Grid
 ===================================================

 Integral of the Total Core Density:                   1.99999999865610
 Relative Error:                                      -6.720E-10



 ========================
 Density Fitting (zlmFit)
 ========================
  
 ZlmFit Fit Quality: VERYGOOD       
  
 Max L-expansion:                        min:   0 max:   0
 Nr. of radial interpolation points:     min: 140 max: 140



 =====
 S C F  ***  ScaSCF  ***
 =====
  

 CYCLE    1
 SCF Error: norm([F,P])=      0.000000000000, max([F,P])=      0.000000000000
 orbitals (Q,E):
 ---------------
 S :1...3            ( 2.00    -5.3654)  ( 0.00    -2.2073)  ( 0.00    23.6692)
 P :1...3            ( 4.00    -5.0045)  ( 0.00    -2.0150)  ( 0.00    -0.3846)
 D :1...1            ( 0.00    -2.0410)

 CYCLE    2
 SCF Error: norm([F,P])=      4.562993374873, max([F,P])=      2.528971113813
 orbitals (Q,E):
 ---------------
 S :1...2            ( 2.00    -0.1548)  ( 0.00     1.6948)
 P :1...2            ( 4.00     0.1773)  ( 0.00     0.9552)
 D :1...1            ( 0.00     1.4649)

 CYCLE    3
  SDIIS (wt  0.000):  0.3378  0.6622
 A-DIIS (wt  1.000):  0.4814  0.5186
  DIIS coefficients:  0.4814  0.5186
 SCF Error: norm([F,P])=      2.723155250500, max([F,P])=      1.798667049295
 orbitals (Q,E):
 ---------------
 S :1...2            ( 2.00    -1.1093)  ( 0.00     0.7549)
 P :1...2            ( 4.00    -0.5518)  ( 0.00     0.2590)
 D :1...1            ( 0.00     0.8910)

 CYCLE    4
  SDIIS (wt  0.000):  0.0919  0.9081
 A-DIIS (wt  1.000):  0.0000  1.0000
  DIIS coefficients:  0.0000  1.0000
 SCF Error: norm([F,P])=      0.289027138405, max([F,P])=      0.130648623511
 orbitals (Q,E):
 ---------------
 S :1...2            ( 2.00    -0.7707)  ( 0.00     0.9912)
 P :1...2            ( 4.00    -0.2284)  ( 0.00     0.4046)
 D :1...1            ( 0.00     1.1288)

 CYCLE    5
  SDIIS (wt  0.000):  0.0260  0.6740  0.3001
 A-DIIS (wt  1.000):  0.0000  0.5764  0.4236
  DIIS coefficients:  0.0000  0.5764  0.4236
 SCF Error: norm([F,P])=      0.416615089426, max([F,P])=      0.232643669786
 orbitals (Q,E):
 ---------------
 S :1...2            ( 2.00    -0.8764)  ( 0.00     0.9107)
 P :1...2            ( 4.00    -0.3280)  ( 0.00     0.3557)
 D :1...1            ( 0.00     1.0703)

 CYCLE    6
  SDIIS (wt  0.942):  0.0005  0.0237 -0.0203  0.9960
 A-DIIS (wt  0.058):  0.0000  0.0000  0.0000  1.0000
  DIIS coefficients:  0.0005  0.0224 -0.0191  0.9962
 SCF Error: norm([F,P])=      0.013723272809, max([F,P])=      0.006719036732
 orbitals (Q,E):
 ---------------
 S :1...2            ( 2.00    -0.8830)  ( 0.00     0.9058)
 P :1...2            ( 4.00    -0.3343)  ( 0.00     0.3521)
 D :1...1            ( 0.00     1.0657)

 CYCLE    7
  SDIIS (wt  1.000): -0.0000  0.0016  0.0023  0.0424  0.9537
  DIIS coefficients: -0.0000  0.0016  0.0023  0.0424  0.9537
 SCF Error: norm([F,P])=      0.001103645928, max([F,P])=      0.000634039171
 orbitals (Q,E):
 ---------------
 S :1...2            ( 2.00    -0.8827)  ( 0.00     0.9060)
 P :1...2            ( 4.00    -0.3340)  ( 0.00     0.3523)
 D :1...1            ( 0.00     1.0659)

 CYCLE    8
  SDIIS (wt  1.000): -0.0000 -0.0001  0.0000 -0.0032  0.0268  0.9765
  DIIS coefficients: -0.0000 -0.0001  0.0000 -0.0032  0.0268  0.9765
 SCF Error: norm([F,P])=      0.000035919805, max([F,P])=      0.000020263970
 orbitals (Q,E):
 ---------------
 S :1...2            ( 2.00    -0.8827)  ( 0.00     0.9060)
 P :1...2            ( 4.00    -0.3340)  ( 0.00     0.3522)
 D :1...1            ( 0.00     1.0659)

 CYCLE    9
  SDIIS (wt  1.000): -0.0000  0.0008  0.0188  0.9804
  DIIS coefficients: -0.0000  0.0008  0.0188  0.9804
 SCF Error: norm([F,P])=      0.000000326384, max([F,P])=      0.000000183924
 orbitals (Q,E):
 ---------------
 S :1...2            ( 2.00    -0.8827)  ( 0.00     0.9060)
 P :1...2            ( 4.00    -0.3340)  ( 0.00     0.3522)
 D :1...1            ( 0.00     1.0659)

 CYCLE   10
  SDIIS (wt  1.000):  0.0000  0.0003  0.9996
  DIIS coefficients:  0.0000  0.0003  0.9996
 SCF Error: norm([F,P])=      0.000000000559, max([F,P])=      0.000000000306
 orbitals (Q,E):
 ---------------
 S :1...2            ( 2.00    -0.8827)  ( 0.00     0.9060)
 P :1...2            ( 4.00    -0.3340)  ( 0.00     0.3522)
 D :1...1            ( 0.00     1.0659)

 SCF CONVERGED

 CYCLE   11
1
 ***************************************************************************************************



                                                *******************
                                                *  R E S U L T S  *
                                                *******************
  
 *** Using FIT density in Focky
  SDIIS (wt  1.000): -0.0000  0.0143  0.9857
  DIIS coefficients: -0.0000  0.0143  0.9857
 SCF Error: norm([F,P])=      0.000000000010, max([F,P])=      0.000000000006

 Scaled ZORA Orbital Energies, per Irrep and Spin:
 =================================================
                        Occup              E (au)              E (eV)       Diff (eV) with prev. cycle
                        -----      --------------------        ------       --------------------------
 S
               1        2.000     -0.88272313143209E+00       -24.020              -9.28E-11
               2        0.000      0.90601345014671E+00        24.654
               3        0.000      0.29578810816937E+02       804.880
 P
               1        4.000     -0.33400585272070E+00        -9.089              -8.94E-11
               2        0.000      0.35224911365993E+00         9.585
               3        0.000      0.38342927625315E+01       104.336
 D
               1        0.000      0.10658965783141E+01        29.005


 Partially Occupied:
               1 P                -0.33400585272070E+00
  
 HOMO :        1 S                -0.88272313143209E+00
 LUMO :        2 P                 0.35224911365993E+00
  


 Orbital Energies, all Irreps
 ========================================

 Irrep        no.  (spin)   Occup              E (au)                E (eV)
 ---------------------------------------------------------------------------
 S             1             2.00       -0.88272313143209E+00       -24.0201
 P             1             4.00       -0.33400585272070E+00        -9.0888
 P             2             0.00        0.35224911365993E+00         9.5852
 S             2             0.00        0.90601345014671E+00        24.6539
 D             1             0.00        0.10658965783141E+01        29.0045
 P             3             0.00        0.38342927625315E+01       104.3364
 S             3             0.00        0.29578810816937E+02       804.8804


 Scaled ZORA Orbital Energies of the Core Orbitals:
 ==================================================

 (Note that the atoms are grouped by atomtype, see the labels, and may hence NOT be in input order)

 AtomType  Orbital  Atom                   E (au)                        E (eV)
 --------  -------  ----           --------------------        ----------------
 O           1S        1          -0.18925919758629E+02                -515.000



 =======================================
 M U L L I K E N   P O P U L A T I O N S
 =======================================
  
 The survey below gives for each atom:
 a) the total charge (Z minus electrons)
 b) the net spin polarization (nr of electrons spin-A minus spin-B)
 c) for each spin the atomic electron valence density (integrated) per L-value.

 Atom              Charge    Spin density          S         P         D         F
 ----              ------    ------------       ------    ------    ------    ------
 1 O              -0.0000                       2.0000    4.0000    0.0000    0.0000

 Populations of individual BAS functions
 ----------------------------------------
 1 O            0.0005  0.9226  1.0966 -0.0196  0.3346  0.3346  0.3346  0.7512  0.7512  0.7512
                0.2476  0.2476  0.2476  0.0000  0.0000  0.0000  0.0000  0.0000  0.0000

 Gross Charges per Atom (Z minus electrons)
 ==========================================
            -0.0000
 Net Total: -0.00000000



 =======================================================================
 Electrostatic potential at the Nuclei due to electrons and other nuclei
 =======================================================================
  
         Atom                  Potential
         ----                  ---------
     1)   O                  22.20265662
 
 
 ========================
 No memory problems found
 ========================
 
 Maximum number of active allocate calls:         389
 
 *******************************************************************************

                             A D F   E X I T
 NORMAL TERMINATION



 =================
 Timing Statistics
 =================
  
 Total Used :                     CPU=        0.42      System=        0.02     Elapsed=        0.48

 Calls  Section                     ( Mean, Percentage )
 ---------------------------------------------------------------------------------------------------
     3  ><      ................      0.00    0.94             0.00    0.00             0.00    0.91
     1  INIT    ................      0.07   16.04             0.00   16.67             0.08   16.08
     1  GEOMET  ................      0.02    3.77             0.00    0.00             0.02    4.79
     1  INPUTA  ................      0.00    0.94             0.00    0.00             0.00    0.70
     1  MAINSY  ................      0.01    1.89             0.00   16.67             0.01    2.89
     1  SYMFIT  ................      0.00    0.00             0.00    0.00             0.00    0.34
     1  CORORT  ................      0.00    0.00             0.00    0.00             0.00    0.32
     1  SYMORB  ................      0.00    0.00             0.00    0.00             0.00    0.18
     1  CLSMAT  ................      0.00    0.94             0.00   16.67             0.01    1.20
     1  ORTHON  ................      0.00    0.94             0.00    0.00             0.01    1.08
     1  GENPT   ................      0.01    2.83             0.00    0.00             0.02    3.12
     1  PTBAS   ................      0.01    1.89             0.00    0.00             0.01    1.15
    11  FOCKY   ................      0.02   54.72             0.00   50.00             0.02   51.48
    11  FOCKTR  ................      0.00    1.89             0.00    0.00             0.00    1.56
    11  SDIIS   ................      0.00    5.66             0.00    0.00             0.00    6.30
     1  COREPS  ................      0.01    2.83             0.00    0.00             0.02    3.64
     1  POPAN   ................      0.00    0.94             0.00    0.00             0.01    1.12
     1  DEBYE   ................      0.00    0.94             0.00    0.00             0.00    0.38
     1  EXIT PROCEDURE .........      0.01    2.83             0.00    0.00             0.01    2.75


 Currently Open Files (EXIT00)
 ====================

 Unit    Access Format  Status   Type       Ident (file)
 -------------------------------------------------------
   3      SEQ    FORM   TRANSP  NORMAL      LOGFILE
                                          ( logfile )

 ***************************************************************************************************
 (LOGFILE)
 <Oct12-2020> <09:53:28>  DIRAC 2019  RunTime: Oct12-2020 09:53:28  Nodes: 1  Procs: 1
 <Oct12-2020> <09:53:28>  NORMAL TERMINATION
 <Oct12-2020> <09:53:28>  END
 <Oct12-2020> <09:53:28>  ADF 2019  RunTime: Oct12-2020 09:53:28  Nodes: 1  Procs: 1
 <Oct12-2020> <09:53:28>  Hydrogen (TZP)
 <Oct12-2020> <09:53:28>  RunType   : CREATE
 <Oct12-2020> <09:53:28>  Net Charge: 0 (Nuclei minus Electrons)
 <Oct12-2020> <09:53:28>  Symmetry  : ATOM
  Coordinates
    Atom         X           Y           Z   (Angstrom)
    1.H         0.000000    0.000000    0.000000
 <Oct12-2020> <09:53:28>  >>>> CORORT
 <Oct12-2020> <09:53:28>  >>>> CLSMAT
 <Oct12-2020> <09:53:28>  >>>> ORTHON
 <Oct12-2020> <09:53:28>  >>>> GENPT
 <Oct12-2020> <09:53:28>  Block Length=  64
 <Oct12-2020> <09:53:28>  >>>> PTBAS
 <Oct12-2020> <09:53:28>  >>>> CYCLE
 <Oct12-2020> <09:53:28>              |Error|         MaxErr       Wt(A-DIIS)
 <Oct12-2020> <09:53:28>      1      0.00000000      0.00000000
 <Oct12-2020> <09:53:29>      2      0.03153787      0.03011049
 <Oct12-2020> <09:53:29>      3      0.00861799      0.00834303    100.0
 <Oct12-2020> <09:53:29>      4      0.00173235      0.00171862      0.7
 <Oct12-2020> <09:53:29>      5      0.00004367      0.00003977      0.0
 <Oct12-2020> <09:53:29>      6      0.00000238      0.00000216      0.0
 <Oct12-2020> <09:53:29>      7      0.00000001      0.00000001      0.0
 <Oct12-2020> <09:53:29>  SCF converged
 <Oct12-2020> <09:53:29>      8      0.00000000      0.00000000      0.0
 <Oct12-2020> <09:53:29>  >>>> POPAN
 <Oct12-2020> <09:53:29>  >>>> DEBYE
 <Oct12-2020> <09:53:29>  NORMAL TERMINATION
 <Oct12-2020> <09:53:29>  END
 <Oct12-2020> <09:53:29>  DIRAC 2019  RunTime: Oct12-2020 09:53:29  Nodes: 1  Procs: 1
 <Oct12-2020> <09:53:29>  NORMAL TERMINATION
 <Oct12-2020> <09:53:29>  END
 <Oct12-2020> <09:53:29>  ADF 2019  RunTime: Oct12-2020 09:53:29  Nodes: 1  Procs: 1
 <Oct12-2020> <09:53:29>  Oxygen (TZP, 1s frozen)
 <Oct12-2020> <09:53:29>  RunType   : CREATE
 <Oct12-2020> <09:53:29>  Net Charge: 0 (Nuclei minus Electrons)
 <Oct12-2020> <09:53:29>  Symmetry  : ATOM
  Coordinates
    Atom         X           Y           Z   (Angstrom)
    1.O         0.000000    0.000000    0.000000
 <Oct12-2020> <09:53:29>  >>>> CORORT
 <Oct12-2020> <09:53:29>  >>>> CLSMAT
 <Oct12-2020> <09:53:29>  >>>> ORTHON
 <Oct12-2020> <09:53:29>  >>>> GENPT
 <Oct12-2020> <09:53:29>  Block Length=  68
 <Oct12-2020> <09:53:29>  >>>> PTBAS
 <Oct12-2020> <09:53:29>  >>>> CYCLE
 <Oct12-2020> <09:53:29>              |Error|         MaxErr       Wt(A-DIIS)
 <Oct12-2020> <09:53:29>      1      0.00000000      0.00000000
 <Oct12-2020> <09:53:29>      2      4.56299337      2.52897111
 <Oct12-2020> <09:53:29>      3      2.72315525      1.79866705    100.0
 <Oct12-2020> <09:53:29>      4      0.28902714      0.13064862    100.0
 <Oct12-2020> <09:53:29>      5      0.41661509      0.23264367    100.0
 <Oct12-2020> <09:53:29>      6      0.01372327      0.00671904      5.8
 <Oct12-2020> <09:53:29>      7      0.00110365      0.00063404      0.0
 <Oct12-2020> <09:53:29>      8      0.00003592      0.00002026      0.0
 <Oct12-2020> <09:53:29>      9      0.00000033      0.00000018      0.0
 <Oct12-2020> <09:53:29>     10      0.00000000      0.00000000      0.0
 <Oct12-2020> <09:53:29>  SCF converged
 <Oct12-2020> <09:53:29>     11      0.00000000      0.00000000      0.0
 <Oct12-2020> <09:53:29>  >>>> POPAN
 <Oct12-2020> <09:53:29>  >>>> DEBYE
 <Oct12-2020> <09:53:29>  NORMAL TERMINATION
 <Oct12-2020> <09:53:29>  END

 *******************************************************************************
 *                                                                             *
 *  -------------------------------------                                      *
 *   Amsterdam Density Functional  (ADF)         2019                          *
 *  -------------------------------------                                      *
 *                                               r79301 2019-11-09             *
 *                                                                             *
 *                                                                             *
 *                            =====================                            *
 *                            |                   |                            *
 *                            |     D I R A C     |                            *
 *                            |                   |                            *
 *                            =====================                            *
 *                                                                             *
 *                                                                             *
 *   Online information and documentation:  https://www.scm.com/support/       *
 *   E-mail:  support@scm.com   info@scm.com                                   *
 *                                                                             *
 *   Scientific publications using ADF results must be properly referenced     *
 *   See the User Manuals (or the web site) for recommended citations          *
 *   The terms and conditions of the End User License Agreement apply to       *
 *   the use of ADF, https://www.scm.com/license-terms/                        *
 *                                                                             *
 **********************  x86_64_linux_intel / intelmpi  ************************
 
 
 
  
 DIRAC 2019  RunTime: Oct12-2020 09:53:29  Nodes: 1  Procs: 1

 Temporary files are created in /scratch/kid_0.1541907568 (0x58465342)

1
 TUNGSTEN ATOM 4d CORE RELATIVISTIC, Point Nuc, A and c from 
 N J RN H ZN XION ANUC CLIGHT
 5000   22100.00000000197.36710137 74.00000000  0.00000000  183.950932  0.1370360E+03
  PH   PHI     EPS        DEL        DELRVR
  0.30  0.30     2500.00  0.00001000  0.00001000
 IDIRC  NC1  NDEBU NPRIN  IPUN IRCOR IWCOR
   1   300     0     0     0     0    14
   XALPHA      XLATTER      RNUC
  0.70000000  0.00000000  0.00000000 Point Charge
   XN   XL   XJ      XE          XZ      XDELL
  1.0  0.0  0.5   -2600.000       2.000     0.00000
  2.0  0.0  0.5    -425.000       2.000     0.00000
  2.0  1.0  0.5    -425.000       2.000     0.00000
  2.0  1.0  1.5    -425.000       4.000     0.00000
  3.0  0.0  0.5    -100.000       2.000     0.00000
  3.0  1.0  0.5    -100.000       2.000     0.00000
  3.0  1.0  1.5    -100.000       4.000     0.00000
  3.0  2.0  1.5     -80.000       4.000     0.00000
  3.0  2.0  2.5     -80.000       6.000     0.00000
  4.0  0.0  0.5     -22.000       2.000     0.00000
  4.0  1.0  0.5     -20.000       2.000     0.00000
  4.0  1.0  1.5     -20.000       4.000     0.00000
  4.0  2.0  1.5     -11.000       4.000     0.00000
  4.0  2.0  2.5     -11.000       6.000     0.00000
  4.0  3.0  2.5      -1.000       6.000     0.00000
  4.0  3.0  3.5      -1.000       8.000     0.00000
  5.0  0.0  0.5      -3.000       2.000     0.00000
  5.0  1.0  0.5      -2.200       2.000     0.00000
  5.0  1.0  1.5      -2.200       4.000     0.00000
  5.0  2.0  1.5      -0.500       4.000     0.00000
  5.0  2.0  2.5      -0.500       0.000     0.00000
  6.0  0.0  0.5      -0.200       2.000     0.00000
 ICORP=  0  NPCL=  0  DEMP=0.00  PEPS=0.000000
 R(1)=  0.1000000E-08 D=  0.1005080E+01 RNUC=  0.0000000E+00
 converged at cycle   63  DENSITY AVERAGING    0.1536
  MAXIMUM ERROR IN R.V(R) IS   0.78838062E-05
 Q,EY,EV,EZ,ESUM,ETOT,RHO  0.740000E+02 -0.431420E+03 -0.281568E+05 -0.403919E+05 -0.993885E+04 -0.161643E+05  0.726391E-09


 DIRAC CALCULATION
1                    TUNGSTEN ATOM 4d CORE RELATIVISTIC, Point Nuc, A and c from libtc


 EXCHANGE COEFFICIENT=  0.7000000           TAIL CORRECTION=  0.           NUCLEAR RADIUS=  0.000E+00
0                       ORBITAL    N    L    J     ELECTRONS     EIGENVALUE                DELTA OF EIGENV.

                          1S1/2  1.0  0.0  0.5     2.000       -0.2549514E+04                 0.5980248E-04
                          2S1/2  2.0  0.0  0.5     2.000       -0.4399118E+03                 0.5052420E-04
                          2P1/2  2.0  1.0  0.5     2.000       -0.4208427E+03                 0.5265062E-04
                          2P3/2  2.0  1.0  1.5     4.000       -0.3711192E+03                 0.5139441E-04
                          3S1/2  3.0  0.0  0.5     2.000       -0.1012881E+03                 0.3437035E-04
                          3P1/2  3.0  1.0  0.5     2.000       -0.9277148E+02                 0.3553128E-04
                          3P3/2  3.0  1.0  1.5     4.000       -0.8201733E+02                 0.3404634E-04
                          3D3/2  3.0  2.0  1.5     4.000       -0.6762803E+02                 0.3680712E-04
                          3D5/2  3.0  2.0  2.5     6.000       -0.6528623E+02                 0.3629511E-04
                          4S1/2  4.0  0.0  0.5     2.000       -0.2084139E+02                 0.1939427E-04
                          4P1/2  4.0  1.0  0.5     2.000       -0.1730737E+02                 0.1933978E-04
                          4P3/2  4.0  1.0  1.5     4.000       -0.1480597E+02                 0.1810922E-04
                          4D3/2  4.0  2.0  1.5     4.000       -0.8989319E+01                 0.1779394E-04
                          4D5/2  4.0  2.0  2.5     6.000       -0.8528007E+01                 0.1741170E-04
                          4F5/2  4.0  3.0  2.5     6.000       -0.1237480E+01                 0.1544089E-04
                          4F7/2  4.0  3.0  3.5     8.000       -0.1154634E+01                 0.1522033E-04
                          5S1/2  5.0  0.0  0.5     2.000       -0.2863514E+01                 0.7979521E-05
                          5P1/2  5.0  1.0  0.5     2.000       -0.1813289E+01                 0.7246225E-05
                          5P3/2  5.0  1.0  1.5     4.000       -0.1448762E+01                 0.6602120E-05
                          5D3/2  5.0  2.0  1.5     4.000       -0.1486933E+00                 0.3973088E-05
                          5D5/2  5.0  2.0  2.5     0.000       -0.1223153E+00                 0.3735081E-05
                          6S1/2  6.0  0.0  0.5     2.000       -0.1847434E+00                 0.1808440E-05


                                        NUCLEAR CHARGE=   74.000000
                            INTEGRAL OF CHARGE DENSITY=   74.000000
                           SUM OF THE ORBITAL ENERGIES=  -9938.8529
                                          TOTAL ENERGY= -16164.2530
                                        KINETIC ENERGY=  18217.9700
                             NUCLEAR ATTRACTION ENERGY= -40391.9132
                             ELECTRON REPULSION ENERGY=   6333.2551
                                       EXCHANGE ENERGY=   -323.5649

 *******************************************************************************

                             D I R A C   E X I T
 NORMAL TERMINATION



 =================
 Timing Statistics
 =================
  
 Total Used :                     CPU=        0.68      System=        0.00     Elapsed=        0.70

 Calls  Section                     ( Mean, Percentage )
 ---------------------------------------------------------------------------------------------------
     2  ><      ................      0.00    0.00             0.00    0.00             0.00    0.00
     1  EXIT PROCEDURE .........      0.68  100.00             0.00    0.00             0.70  100.00


 Currently Open Files (EXIT00)
 ====================

 Unit    Access Format  Status   Type       Ident (file)
 -------------------------------------------------------
   3      SEQ    FORM   TRANSP  NORMAL      LOGFILE
                                          ( logfile )
 
Create W   file=TZP-W.4d
XC
  GGA PBE
End
relativistic ZORA
Corepotentials t12.rel
End

 *******************************************************************************
 *                                                                             *
 *  -------------------------------------                                      *
 *   Amsterdam Density Functional  (ADF)         2019                          *
 *  -------------------------------------                                      *
 *                                               r79301 2019-11-09             *
 *                                                                             *
 *                                                                             *
 *                              =================                              *
 *                              |               |                              *
 *                              |     A D F     |                              *
 *                              |               |                              *
 *                              =================                              *
 *                                                                             *
 *                                                                             *
 *   Online information and documentation:  https://www.scm.com/support/       *
 *   E-mail:  support@scm.com   info@scm.com                                   *
 *                                                                             *
 *   Scientific publications using ADF results must be properly referenced     *
 *   See the User Manuals (or the web site) for recommended citations          *
 *   The terms and conditions of the End User License Agreement apply to       *
 *   the use of ADF, https://www.scm.com/license-terms/                        *
 *                                                                             *
 **********************  x86_64_linux_intel / intelmpi  ************************
 
 
 
  
 ADF 2019  RunTime: Oct12-2020 09:53:30  Nodes: 1  Procs: 1

 Temporary files are created in /scratch/kid_0.994075129 (0x58465342)

 Tungsten (TZP, 4d frozen)



 ===========================
 A T T A C H E D   F I L E S
 ===========================
  
 CREATE - Data File:    TZP-W.4d
                        Tungsten (TZP, 4d frozen)
 Core Potentials:
         file : t12.rel



 ===============================
 M O D E L   P A R A M E T E R S
 ===============================
  
 DENSITY FUNCTIONAL POTENTIAL (scf)
    LDA:                               PW92                                    == Not Default ==
    Gradient Corrections:              PBEc PBEx                               == Not Default ==

 SPIN  (restricted / unrestr.)
    Molecule:                          Restricted                               

 OTHER ASPECTS
    Relativistic Corrections:          scalar (ZORA,MAPA)                      == Not Default ==

    Nuclear Charge Density Model:      Point Charge Nuclei                      
    Core Treatment:                    Frozen Orbital(s)                        

    Hyperfine or Zeeman Interaction:   ---                                      



 =====================================
 S Y M M E T R Y ,   E L E C T R O N S
 =====================================
  
 Symmetry: ATOM

 Irreducible Representations, including subspecies
 -------------------------------------------------
 S
 P:x  P:y  P:z
 D:z2  D:x2-y2  D:xy  D:xz  D:yz
 F:z3  F:z  F:xyz  F:z2x  F:z2y  F:x  F:y


 Configuration of Valence Electrons
 ==================================

          Occupation Numbers
          -------------------------------------------------
 S        2*2
 P        6
 D        4
 F        14
          -------------------------------------------------

 Total:   28

 Net Charge: 0 (Nuclei minus Electrons)

 Preset values for MO occupations will be applied through SCF cycle no. 1000000
 Thereafter, the program will assign electrons to MOs that are spatially
 similar to the occupied MOs in a "reference" cycle ("KeepOrbitals").
 The reference cycle is always the PREVIOUS cycle: it will evolve with
 the SCF procedure.



 ================================
 (Slater-type)  F U N C T I O N S  ***  (Basis and Fit)  ***
 ================================
  

 Atom Type    1  (W)
 ==============

 Valence Basis Sets:  25
 -----------------------
   1 S   52.000000
   2 S   33.250000
   3 S   19.100000
   4 S   11.650000
   2 P   36.850000
   3 P   16.500000
   4 P   11.550000
   3 D   20.100000
   4 D   10.300000
   1 S  163.900000
   5 S    6.050000
   5 S    3.950000
   6 S    2.850000
   6 S    1.800000
   6 S    1.140000
   5 P    5.900000
   5 P    4.000000
   5 P    2.700000
   5 D    4.150000
   5 D    2.250000
   5 D    1.200000
   4 F   13.550000
   4 F    7.050000
   4 F    3.550000
   6 P    1.800000

 Frozen Core Shells
 ------------------
    S:  4
    P:  3
    D:  2


 BAS: List of all Elementary Cartesian Basis Functions
 =====================================================

 The numbering in the list below (to the right of the function characteristics) is referred
 to in print-outs of MO eigenvectors and Mulliken populations in the BAS representation
 (as contrasted to the SFO representation).

 Notes:
 1. The functions are characterized by a polynomial prefactor (powers of x,y,z and r) and
    an exponential decay factor alpha.
 2. Since the basis sets are specific for an atom TYPE, the individual functions occur on
    all atoms of that type.
 3. The word 'Core' in the left margin signals that it is a Core Function (CF) : not a
    degree of freedom in the valence set, but only used to ensure orthogonalization of
    the other valence basis functions on the frozen Core Orbitals.


 (power of) X  Y  Z  R     Alpha  on Atom
            ==========     =====     ==========

 W                                    1
                                  ---------------------------------------------------------------------------
    Core    0  0  0  0    52.000      1
    Core    0  0  0  1    33.250      2
    Core    0  0  0  2    19.100      3
    Core    0  0  0  3    11.650      4
    Core    1  0  0  0    36.850      5
    Core    0  1  0  0    36.850      6
    Core    0  0  1  0    36.850      7
    Core    1  0  0  1    16.500      8
    Core    0  1  0  1    16.500      9
    Core    0  0  1  1    16.500     10
    Core    1  0  0  2    11.550     11
    Core    0  1  0  2    11.550     12
    Core    0  0  1  2    11.550     13
    Core    2  0  0  0    20.100     14
    Core    1  1  0  0    20.100     15
    Core    1  0  1  0    20.100     16
    Core    0  2  0  0    20.100     17
    Core    0  1  1  0    20.100     18
    Core    0  0  2  0    20.100     19
    Core    2  0  0  1    10.300     20
    Core    1  1  0  1    10.300     21
    Core    1  0  1  1    10.300     22
    Core    0  2  0  1    10.300     23
    Core    0  1  1  1    10.300     24
    Core    0  0  2  1    10.300     25
            0  0  0  0   163.900     26
            0  0  0  4     6.050     27
            0  0  0  4     3.950     28
            0  0  0  5     2.850     29
            0  0  0  5     1.800     30
            0  0  0  5     1.140     31
            1  0  0  3     5.900     32
            0  1  0  3     5.900     33
            0  0  1  3     5.900     34
            1  0  0  3     4.000     35
            0  1  0  3     4.000     36
            0  0  1  3     4.000     37
            1  0  0  3     2.700     38
            0  1  0  3     2.700     39
            0  0  1  3     2.700     40
            2  0  0  2     4.150     41
            1  1  0  2     4.150     42
            1  0  1  2     4.150     43
            0  2  0  2     4.150     44
            0  1  1  2     4.150     45
            0  0  2  2     4.150     46
            2  0  0  2     2.250     47
            1  1  0  2     2.250     48
            1  0  1  2     2.250     49
            0  2  0  2     2.250     50
            0  1  1  2     2.250     51
            0  0  2  2     2.250     52
            2  0  0  2     1.200     53
            1  1  0  2     1.200     54
            1  0  1  2     1.200     55
            0  2  0  2     1.200     56
            0  1  1  2     1.200     57
            0  0  2  2     1.200     58
            3  0  0  0    13.550     59
            2  1  0  0    13.550     60
            2  0  1  0    13.550     61
            1  2  0  0    13.550     62
            1  1  1  0    13.550     63
            1  0  2  0    13.550     64
            0  3  0  0    13.550     65
            0  2  1  0    13.550     66
            0  1  2  0    13.550     67
            0  0  3  0    13.550     68
            3  0  0  0     7.050     69
            2  1  0  0     7.050     70
            2  0  1  0     7.050     71
            1  2  0  0     7.050     72
            1  1  1  0     7.050     73
            1  0  2  0     7.050     74
            0  3  0  0     7.050     75
            0  2  1  0     7.050     76
            0  1  2  0     7.050     77
            0  0  3  0     7.050     78
            3  0  0  0     3.550     79
            2  1  0  0     3.550     80
            2  0  1  0     3.550     81
            1  2  0  0     3.550     82
            1  1  1  0     3.550     83
            1  0  2  0     3.550     84
            0  3  0  0     3.550     85
            0  2  1  0     3.550     86
            0  1  2  0     3.550     87
            0  0  3  0     3.550     88
            1  0  0  4     1.800     89
            0  1  0  4     1.800     90
            0  0  1  4     1.800     91

 Total number of charge fitting functions (nprimf)       329
 Total number of Cartesian basis functions (naos)         91
 Total number of Cartesian core functions  (ncos)         25



 BAS: List of all Elementary Cartesian Basis Functions
 =====================================================

 The numbering in the list below (to the right of the function characteristics) is referred
 to in print-outs of MO eigenvectors and Mulliken populations in the BAS representation
 (as contrasted to the SFO representation).

 Notes:
 1. The functions are characterized by a polynomial prefactor (powers of x,y,z and r) and
    an exponential decay factor alpha.
 2. Since the basis sets are specific for an atom TYPE, the individual functions occur on
    all atoms of that type.
 3. The word 'Core' in the left margin signals that it is a Core Function (CF) : not a
    degree of freedom in the valence set, but only used to ensure orthogonalization of
    the other valence basis functions on the frozen Core Orbitals.


 (power of) X  Y  Z  R     Alpha  on Atom
            ==========     =====     ==========

 W                                    1
                                  ---------------------------------------------------------------------------
    Core    0  0  0  0    52.000      1
    Core    0  0  0  1    33.250      2
    Core    0  0  0  2    19.100      3
    Core    0  0  0  3    11.650      4
    Core    1  0  0  0    36.850      5
    Core    0  1  0  0    36.850      6
    Core    0  0  1  0    36.850      7
    Core    1  0  0  1    16.500      8
    Core    0  1  0  1    16.500      9
    Core    0  0  1  1    16.500     10
    Core    1  0  0  2    11.550     11
    Core    0  1  0  2    11.550     12
    Core    0  0  1  2    11.550     13
    Core    2  0  0  0    20.100     14
    Core    1  1  0  0    20.100     15
    Core    1  0  1  0    20.100     16
    Core    0  2  0  0    20.100     17
    Core    0  1  1  0    20.100     18
    Core    0  0  2  0    20.100     19
    Core    2  0  0  1    10.300     20
    Core    1  1  0  1    10.300     21
    Core    1  0  1  1    10.300     22
    Core    0  2  0  1    10.300     23
    Core    0  1  1  1    10.300     24
    Core    0  0  2  1    10.300     25
            0  0  0  0   163.900     26
            0  0  0  4     6.050     27
            0  0  0  4     3.950     28
            0  0  0  5     2.850     29
            0  0  0  5     1.800     30
            0  0  0  5     1.140     31
            1  0  0  3     5.900     32
            0  1  0  3     5.900     33
            0  0  1  3     5.900     34
            1  0  0  3     4.000     35
            0  1  0  3     4.000     36
            0  0  1  3     4.000     37
            1  0  0  3     2.700     38
            0  1  0  3     2.700     39
            0  0  1  3     2.700     40
            2  0  0  2     4.150     41
            1  1  0  2     4.150     42
            1  0  1  2     4.150     43
            0  2  0  2     4.150     44
            0  1  1  2     4.150     45
            0  0  2  2     4.150     46
            2  0  0  2     2.250     47
            1  1  0  2     2.250     48
            1  0  1  2     2.250     49
            0  2  0  2     2.250     50
            0  1  1  2     2.250     51
            0  0  2  2     2.250     52
            2  0  0  2     1.200     53
            1  1  0  2     1.200     54
            1  0  1  2     1.200     55
            0  2  0  2     1.200     56
            0  1  1  2     1.200     57
            0  0  2  2     1.200     58
            3  0  0  0    13.550     59
            2  1  0  0    13.550     60
            2  0  1  0    13.550     61
            1  2  0  0    13.550     62
            1  1  1  0    13.550     63
            1  0  2  0    13.550     64
            0  3  0  0    13.550     65
            0  2  1  0    13.550     66
            0  1  2  0    13.550     67
            0  0  3  0    13.550     68
            3  0  0  0     7.050     69
            2  1  0  0     7.050     70
            2  0  1  0     7.050     71
            1  2  0  0     7.050     72
            1  1  1  0     7.050     73
            1  0  2  0     7.050     74
            0  3  0  0     7.050     75
            0  2  1  0     7.050     76
            0  1  2  0     7.050     77
            0  0  3  0     7.050     78
            3  0  0  0     3.550     79
            2  1  0  0     3.550     80
            2  0  1  0     3.550     81
            1  2  0  0     3.550     82
            1  1  1  0     3.550     83
[...]
 <Oct12-2020> <10:14:29>     17      0.00008720      0.00001126      0.0
 <Oct12-2020> <10:14:32>     18      0.00000889      0.00000103      0.0
 <Oct12-2020> <10:14:35>     19      0.00001230      0.00000145      0.0
 <Oct12-2020> <10:14:38>     20      0.00000665      0.00000070      0.0
 <Oct12-2020> <10:14:39>  SCF converged
 <Oct12-2020> <10:14:40>     21      0.00000416      0.00000040      0.0
 <Oct12-2020> <10:14:42>  >>>> TOTEN
 <Oct12-2020> <10:14:46>  >>>> POPAN
 <Oct12-2020> <10:14:46>  >>>> DEBYE
 <Oct12-2020> <10:14:46>  >>>> ENGRAD
 <Oct12-2020> <10:14:57>  current energy                               -9.73750919 Hartree
 <Oct12-2020> <10:14:57>  energy change                      -0.00006701     0.00100000    T
 <Oct12-2020> <10:14:57>  constrained gradient max            0.00184770     0.00100000    F
 <Oct12-2020> <10:14:57>  constrained gradient rms            0.00057302     0.00066667    T
 <Oct12-2020> <10:14:57>  gradient max                        0.00184770
 <Oct12-2020> <10:14:57>  gradient rms                        0.00057302
 <Oct12-2020> <10:14:57>  cart. step max                      0.00324296     0.01000000    T
 <Oct12-2020> <10:14:57>  cart. step rms                      0.00124698     0.00666667    T
  Coordinates in Geometry Cycle 16
    Atom         X           Y           Z   (Angstrom)
    1.W         2.019559   -1.372735    3.024526
    2.W         2.238604    2.422474    4.460301
    3.O        -0.823196    4.183246    5.828830
    4.W         0.747489   -0.090838    5.953893
    5.W        -1.382096   -1.222158    3.397972
    6.W        -1.168641    2.658718    4.921614
    7.W        -2.725417    0.045043    6.145652
    8.O         0.562620   -1.569022    4.732875
    9.O         0.752667    1.818520    6.087727
   10.O         1.841016    0.559871    4.216875
   11.O         0.212449    2.750774    3.690614
   12.O         3.359437   -1.786027    4.143774
   13.O         0.086554   -0.683271    2.385022
   14.O        -2.700437   -0.560619    2.417697
   15.O        -1.452234   -2.966378    3.043630
   16.O        -2.554803    3.078142    3.906142
   17.O        -0.631603   -0.464754    7.073868
   18.O        -2.160372    1.860406    6.511215
   19.O         1.863998    4.236070    5.227919
   20.O         2.837026   -0.486582    1.704104
   21.O        -3.288659   -0.543390    7.737084
   22.O        -1.176012    0.535330    4.672945
   23.O        -2.367456   -1.570068    5.159966
   24.O        -4.252885    0.457000    5.341438
   25.O         1.693954   -2.980175    2.308880
   26.O         2.912814    2.871183    2.886280
   27.O         2.124688   -0.551655    6.955083
   28.O         3.696235    2.249493    5.466667
   29.H         0.894492    4.307903    5.461009
 <Oct12-2020> <10:14:57>  >>>> CORORT
 <Oct12-2020> <10:14:58>  >>>> CLSMAT
 <Oct12-2020> <10:14:58>  >>>> ORTHON
 <Oct12-2020> <10:14:58>  >>>> GENPT
 <Oct12-2020> <10:14:58>  Block Length= 128
 <Oct12-2020> <10:14:58>  >>>> PTBAS
 <Oct12-2020> <10:15:02>  combining surface points...
 <Oct12-2020> <10:15:02>  combining surface points...
 <Oct12-2020> <10:15:02>  combining surface points...
 <Oct12-2020> <10:15:02>  >>>> CYCLE
 <Oct12-2020> <10:15:07>              |Error|         MaxErr       Wt(A-DIIS)
 <Oct12-2020> <10:15:07>      1      0.25916770      0.03481994
 <Oct12-2020> <10:15:10>      2      0.59140224      0.04212105    100.0
 <Oct12-2020> <10:15:13>      3      0.20051216      0.01841025    100.0
 <Oct12-2020> <10:15:16>      4      0.35975983      0.02838178    100.0
 <Oct12-2020> <10:15:19>      5      0.51318484      0.04014934    100.0
 <Oct12-2020> <10:15:22>      6      0.21735538      0.02819054     27.5
 <Oct12-2020> <10:15:25>      7      0.16610133      0.02547442     24.7
 <Oct12-2020> <10:15:28>      8      0.06304656      0.00606966      5.1
 <Oct12-2020> <10:15:31>      9      0.01833774      0.00209300      1.1
 <Oct12-2020> <10:15:34>     10      0.00735689      0.00102284      0.0
 <Oct12-2020> <10:15:38>     11      0.00408330      0.00046769      0.0
 <Oct12-2020> <10:15:41>     12      0.00091612      0.00011533      0.0
 <Oct12-2020> <10:15:44>     13      0.00055717      0.00006739      0.0
 <Oct12-2020> <10:15:46>     14      0.00025618      0.00003723      0.0
 <Oct12-2020> <10:15:49>     15      0.00011814      0.00001096      0.0
 <Oct12-2020> <10:15:52>     16      0.00005420      0.00000556      0.0
 <Oct12-2020> <10:15:55>     17      0.00001406      0.00000136      0.0
 <Oct12-2020> <10:15:58>     18      0.00001959      0.00000300      0.0
 <Oct12-2020> <10:16:01>     19      0.00000675      0.00000087      0.0
 <Oct12-2020> <10:16:02>  SCF converged
 <Oct12-2020> <10:16:03>     20      0.00000161      0.00000019      0.0
 <Oct12-2020> <10:16:05>  >>>> TOTEN
 <Oct12-2020> <10:16:09>  >>>> POPAN
 <Oct12-2020> <10:16:09>  >>>> DEBYE
 <Oct12-2020> <10:16:09>  >>>> ENGRAD
 <Oct12-2020> <10:16:20>  current energy                               -9.73755444 Hartree
 <Oct12-2020> <10:16:20>  energy change                      -0.00004525     0.00100000    T
 <Oct12-2020> <10:16:20>  constrained gradient max            0.00199193     0.00100000    F
 <Oct12-2020> <10:16:20>  constrained gradient rms            0.00050916     0.00066667    T
 <Oct12-2020> <10:16:20>  gradient max                        0.00199193
 <Oct12-2020> <10:16:20>  gradient rms                        0.00050916
 <Oct12-2020> <10:16:20>  cart. step max                      0.00616091     0.01000000    T
 <Oct12-2020> <10:16:20>  cart. step rms                      0.00190439     0.00666667    T
  Coordinates in Geometry Cycle 17
    Atom         X           Y           Z   (Angstrom)
    1.W         2.018026   -1.375857    3.023301
    2.W         2.239579    2.423207    4.462390
    3.O        -0.827939    4.184664    5.827807
    4.W         0.749466   -0.090551    5.952921
    5.W        -1.381829   -1.223486    3.399037
    6.W        -1.169813    2.659939    4.919301
    7.W        -2.725232    0.047117    6.146249
    8.O         0.561360   -1.568388    4.730970
    9.O         0.753998    1.817954    6.086945
   10.O         1.842656    0.561268    4.216450
   11.O         0.214036    2.753729    3.692092
   12.O         3.355947   -1.789809    4.144617
   13.O         0.086505   -0.682895    2.385102
   14.O        -2.699981   -0.562751    2.417863
   15.O        -1.451366   -2.967489    3.044122
   16.O        -2.554697    3.077001    3.901590
   17.O        -0.629775   -0.464353    7.072430
   18.O        -2.161749    1.862323    6.511453
   19.O         1.862863    4.232624    5.234080
   20.O         2.838052   -0.490039    1.704235
   21.O        -3.286098   -0.542921    7.737778
   22.O        -1.176243    0.538177    4.671572
   23.O        -2.365687   -1.568347    5.160165
   24.O        -4.254033    0.455602    5.342956
   25.O         1.691863   -2.982498    2.306895
   26.O         2.911056    2.874186    2.887425
   27.O         2.126713   -0.552657    6.953385
   28.O         3.699214    2.252673    5.467117
   29.H         0.892899    4.308078    5.463355
 <Oct12-2020> <10:16:20>  >>>> CORORT
 <Oct12-2020> <10:16:21>  >>>> CLSMAT
 <Oct12-2020> <10:16:21>  >>>> ORTHON
 <Oct12-2020> <10:16:21>  >>>> GENPT
 <Oct12-2020> <10:16:21>  Block Length= 128
 <Oct12-2020> <10:16:21>  >>>> PTBAS
 <Oct12-2020> <10:16:24>  combining surface points...
 <Oct12-2020> <10:16:24>  combining surface points...
 <Oct12-2020> <10:16:25>  combining surface points...
 <Oct12-2020> <10:16:25>  >>>> CYCLE
 <Oct12-2020> <10:16:30>              |Error|         MaxErr       Wt(A-DIIS)
 <Oct12-2020> <10:16:30>      1      0.33966029      0.06058009
 <Oct12-2020> <10:16:33>      2      0.59287964      0.04246390    100.0
 <Oct12-2020> <10:16:36>      3      0.20041823      0.01836984    100.0
 <Oct12-2020> <10:16:39>      4      0.35695861      0.02824802    100.0
 <Oct12-2020> <10:16:42>      5      0.52446664      0.04113210    100.0
 <Oct12-2020> <10:16:45>      6      0.21544226      0.02792147     27.2
 <Oct12-2020> <10:16:48>      7      0.16941961      0.02591279     25.2
 <Oct12-2020> <10:16:51>      8      0.06658845      0.00646287      5.5
 <Oct12-2020> <10:16:55>      9      0.01844958      0.00204641      1.1
 <Oct12-2020> <10:16:58>     10      0.00733472      0.00100849      0.0
 <Oct12-2020> <10:17:01>     11      0.00407156      0.00046629      0.0
 <Oct12-2020> <10:17:03>     12      0.00092399      0.00011748      0.0
 <Oct12-2020> <10:17:06>     13      0.00055730      0.00006836      0.0
 <Oct12-2020> <10:17:09>     14      0.00025653      0.00003726      0.0
 <Oct12-2020> <10:17:12>     15      0.00012120      0.00001137      0.0
 <Oct12-2020> <10:17:15>     16      0.00005586      0.00000560      0.0
 <Oct12-2020> <10:17:18>     17      0.00001355      0.00000170      0.0
 <Oct12-2020> <10:17:21>     18      0.00002555      0.00000339      0.0
 <Oct12-2020> <10:17:23>     19      0.00000901      0.00000109      0.0
 <Oct12-2020> <10:17:26>     20      0.00000179      0.00000021      0.0
 <Oct12-2020> <10:17:27>  SCF converged
 <Oct12-2020> <10:17:29>     21      0.00000167      0.00000020      0.0
 <Oct12-2020> <10:17:30>  >>>> TOTEN
 <Oct12-2020> <10:17:34>  >>>> POPAN
 <Oct12-2020> <10:17:34>  >>>> DEBYE
 <Oct12-2020> <10:17:34>  >>>> ENGRAD
 <Oct12-2020> <10:17:46>  current energy                               -9.73754975 Hartree
 <Oct12-2020> <10:17:46>  energy change                       0.00000469     0.00100000    T
 <Oct12-2020> <10:17:46>  constrained gradient max            0.00151845     0.00100000    F
 <Oct12-2020> <10:17:46>  constrained gradient rms            0.00041098     0.00066667    T
 <Oct12-2020> <10:17:46>  gradient max                        0.00151845
 <Oct12-2020> <10:17:46>  gradient rms                        0.00041098
 <Oct12-2020> <10:17:46>  cart. step max                      0.00418375     0.01000000    T
 <Oct12-2020> <10:17:46>  cart. step rms                      0.00109796     0.00666667    T
  Coordinates in Geometry Cycle 18
    Atom         X           Y           Z   (Angstrom)
    1.W         2.017484   -1.377348    3.022622
    2.W         2.239250    2.423201    4.463740
    3.O        -0.831831    4.186444    5.825912
    4.W         0.750921   -0.091099    5.952658
    5.W        -1.381400   -1.224254    3.399528
    6.W        -1.170412    2.660078    4.918099
    7.W        -2.724738    0.048393    6.146699
    8.O         0.560467   -1.568144    4.730029
    9.O         0.755179    1.817318    6.087261
   10.O         1.843270    0.562149    4.216502
   11.O         0.214279    2.753308    3.692748
   12.O         3.354586   -1.791506    4.144848
   13.O         0.086847   -0.683240    2.384830
   14.O        -2.699507   -0.563537    2.418115
   15.O        -1.450992   -2.968097    3.044110
   16.O        -2.554972    3.077520    3.900100
   17.O        -0.628600   -0.464248    7.071885
   18.O        -2.161565    1.863578    6.511359
   19.O         1.861499    4.230957    5.238263
   20.O         2.838394   -0.491273    1.704368
   21.O        -3.284860   -0.542090    7.738252
   22.O        -1.175920    0.539968    4.670912
   23.O        -2.365002   -1.567074    5.160085
   24.O        -4.253336    0.456418    5.343406
   25.O         1.691217   -2.983652    2.305746
   26.O         2.909867    2.875274    2.888403
   27.O         2.128173   -0.554202    6.952608
   28.O         3.700572    2.253784    5.466592
   29.H         0.890921    4.307875    5.463924
 <Oct12-2020> <10:17:46>  >>>> CORORT
 <Oct12-2020> <10:17:46>  >>>> CLSMAT
 <Oct12-2020> <10:17:46>  >>>> ORTHON
 <Oct12-2020> <10:17:46>  >>>> GENPT
 <Oct12-2020> <10:17:46>  Block Length= 128
 <Oct12-2020> <10:17:47>  >>>> PTBAS
 <Oct12-2020> <10:17:50>  combining surface points...
 <Oct12-2020> <10:17:50>  combining surface points...
 <Oct12-2020> <10:17:50>  combining surface points...
 <Oct12-2020> <10:17:50>  >>>> CYCLE
 <Oct12-2020> <10:17:55>              |Error|         MaxErr       Wt(A-DIIS)
 <Oct12-2020> <10:17:55>      1      0.24641704      0.04764033
 <Oct12-2020> <10:17:58>      2      0.59274047      0.04256278    100.0
 <Oct12-2020> <10:18:01>      3      0.20079699      0.01841694    100.0
 <Oct12-2020> <10:18:04>      4      0.36071268      0.02851763    100.0
 <Oct12-2020> <10:18:08>      5      0.51259952      0.04048667    100.0
 <Oct12-2020> <10:18:11>      6      0.21848039      0.02830236     27.6
 <Oct12-2020> <10:18:14>      7      0.16570159      0.02526616     24.5
 <Oct12-2020> <10:18:17>      8      0.06281929      0.00608455      5.1
 <Oct12-2020> <10:18:20>      9      0.01840295      0.00209592      1.1
 <Oct12-2020> <10:18:23>     10      0.00736803      0.00102287      0.0
 <Oct12-2020> <10:18:26>     11      0.00408983      0.00046755      0.0
 <Oct12-2020> <10:18:29>     12      0.00092176      0.00011681      0.0
 <Oct12-2020> <10:18:32>     13      0.00055934      0.00006829      0.0
 <Oct12-2020> <10:18:35>     14      0.00025640      0.00003730      0.0
 <Oct12-2020> <10:18:37>     15      0.00011878      0.00001096      0.0
 <Oct12-2020> <10:18:40>     16      0.00005403      0.00000555      0.0
 <Oct12-2020> <10:18:43>     17      0.00001450      0.00000139      0.0
 <Oct12-2020> <10:18:46>     18      0.00001874      0.00000298      0.0
 <Oct12-2020> <10:18:49>     19      0.00000638      0.00000081      0.0
 <Oct12-2020> <10:18:50>  SCF converged
 <Oct12-2020> <10:18:51>     20      0.00000172      0.00000021      0.0
 <Oct12-2020> <10:18:53>  >>>> TOTEN
 <Oct12-2020> <10:18:57>  >>>> POPAN
 <Oct12-2020> <10:18:57>  >>>> DEBYE
 <Oct12-2020> <10:18:57>  >>>> ENGRAD
 <Oct12-2020> <10:19:08>  current energy                               -9.73756539 Hartree
 <Oct12-2020> <10:19:08>  energy change                      -0.00001563     0.00100000    T
 <Oct12-2020> <10:19:08>  constrained gradient max            0.00093010     0.00100000    T
 <Oct12-2020> <10:19:08>  constrained gradient rms            0.00028205     0.00066667    T
 <Oct12-2020> <10:19:08>  gradient max                        0.00093010
 <Oct12-2020> <10:19:08>  gradient rms                        0.00028205
 <Oct12-2020> <10:19:08>  cart. step max                      0.00290126     0.01000000    T
 <Oct12-2020> <10:19:08>  cart. step rms                      0.00074351     0.00666667    T
 <Oct12-2020> <10:19:08>  GEOMETRY CONVERGED
 <Oct12-2020> <10:19:08>  Calculating Energy Terms for Final Geometry
  Coordinates in Geometry Cycle 18
    Atom         X           Y           Z   (Angstrom)
    1.W         2.017484   -1.377348    3.022622
    2.W         2.239250    2.423201    4.463740
    3.O        -0.831831    4.186444    5.825912
    4.W         0.750921   -0.091099    5.952658
    5.W        -1.381400   -1.224254    3.399528
    6.W        -1.170412    2.660078    4.918099
    7.W        -2.724738    0.048393    6.146699
    8.O         0.560467   -1.568144    4.730029
    9.O         0.755179    1.817318    6.087261
   10.O         1.843270    0.562149    4.216502
   11.O         0.214279    2.753308    3.692748
   12.O         3.354586   -1.791506    4.144848
   13.O         0.086847   -0.683240    2.384830
   14.O        -2.699507   -0.563537    2.418115
   15.O        -1.450992   -2.968097    3.044110
   16.O        -2.554972    3.077520    3.900100
   17.O        -0.628600   -0.464248    7.071885
   18.O        -2.161565    1.863578    6.511359
   19.O         1.861499    4.230957    5.238263
   20.O         2.838394   -0.491273    1.704368
   21.O        -3.284860   -0.542090    7.738252
   22.O        -1.175920    0.539968    4.670912
   23.O        -2.365002   -1.567074    5.160085
   24.O        -4.253336    0.456418    5.343406
   25.O         1.691217   -2.983652    2.305746
   26.O         2.909867    2.875274    2.888403
   27.O         2.128173   -0.554202    6.952608
   28.O         3.700572    2.253784    5.466592
   29.H         0.890921    4.307875    5.463924
 <Oct12-2020> <10:19:08>  >>>> CORORT
 <Oct12-2020> <10:19:09>  >>>> CLSMAT
 <Oct12-2020> <10:19:09>  >>>> ORTHON
 <Oct12-2020> <10:19:09>  >>>> GENPT
 <Oct12-2020> <10:19:09>  Block Length= 128
 <Oct12-2020> <10:19:09>  >>>> PTBAS
 <Oct12-2020> <10:19:13>  combining surface points...
 <Oct12-2020> <10:19:13>  combining surface points...
 <Oct12-2020> <10:19:13>  combining surface points...
 <Oct12-2020> <10:19:13>  >>>> CYCLE
 <Oct12-2020> <10:19:18>              |Error|         MaxErr       Wt(A-DIIS)
 <Oct12-2020> <10:19:18>      1      0.18003300      0.01472999
 <Oct12-2020> <10:19:21>      2      0.59134193      0.05559373    100.0
 <Oct12-2020> <10:19:24>      3      0.20076059      0.01973898    100.0
 <Oct12-2020> <10:19:27>      4      0.36138790      0.03842335    100.0
 <Oct12-2020> <10:19:30>      5      0.50943906      0.05151115    100.0
 <Oct12-2020> <10:19:34>      6      0.21788381      0.02726950     26.5
 <Oct12-2020> <10:19:37>      7      0.16149840      0.02386550     23.1
 <Oct12-2020> <10:19:40>      8      0.05981310      0.00685726      5.9
 <Oct12-2020> <10:19:43>      9      0.01941174      0.00240003      1.4
 <Oct12-2020> <10:19:46>     10      0.00746233      0.00101245      0.0
 <Oct12-2020> <10:19:49>     11      0.00404094      0.00045088      0.0
 <Oct12-2020> <10:19:52>     12      0.00091106      0.00011508      0.0
 <Oct12-2020> <10:19:54>     13      0.00055763      0.00006640      0.0
 <Oct12-2020> <10:19:57>     14      0.00025975      0.00004780      0.0
 <Oct12-2020> <10:20:00>     15      0.00011659      0.00001113      0.0
 <Oct12-2020> <10:20:03>     16      0.00005192      0.00000517      0.0
 <Oct12-2020> <10:20:06>     17      0.00001852      0.00000230      0.0
 <Oct12-2020> <10:20:09>     18      0.00001478      0.00000250      0.0
 <Oct12-2020> <10:20:11>     19      0.00000537      0.00000059      0.0
 <Oct12-2020> <10:20:12>  SCF converged
 <Oct12-2020> <10:20:14>     20      0.00000148      0.00000019      0.0
 <Oct12-2020> <10:20:17>  >>>> TOTEN
 <Oct12-2020> <10:20:25>  QTAIM: determining topology...
 <Oct12-2020> <10:20:33>  >>>> POPAN
 <Oct12-2020> <10:20:33>  >>>> DEBYE
 <Oct12-2020> <10:20:33>  >>>> AMETS
 <Oct12-2020> <10:20:33>  >>>> POPUL
 <Oct12-2020> <10:20:34>   Bond Energy          -9.73756539 a.u.
 <Oct12-2020> <10:20:34>   Bond Energy        -264.97263608 eV
 <Oct12-2020> <10:20:34>   Bond Energy       -6110.42       kcal/mol
 <Oct12-2020> <10:20:34>  >>>> ENHESS
 <Oct12-2020> <10:20:51>  === NUCLEUS:     1
 <Oct12-2020> <10:24:21>  === NUCLEUS:     2
 <Oct12-2020> <10:27:37>  === NUCLEUS:     3
 <Oct12-2020> <10:30:52>  === NUCLEUS:     4
 <Oct12-2020> <10:34:07>  === NUCLEUS:     5
 <Oct12-2020> <10:37:23>  === NUCLEUS:     6
 <Oct12-2020> <10:40:39>  === NUCLEUS:     7
 <Oct12-2020> <10:43:38>  === NUCLEUS:     8
 <Oct12-2020> <10:46:41>  === NUCLEUS:     9
 <Oct12-2020> <10:49:44>  === NUCLEUS:    10
 <Oct12-2020> <10:52:46>  === NUCLEUS:    11
 <Oct12-2020> <10:55:45>  === NUCLEUS:    12
 <Oct12-2020> <10:58:51>  === NUCLEUS:    13
 <Oct12-2020> <11:01:53>  === NUCLEUS:    14
 <Oct12-2020> <11:04:56>  === NUCLEUS:    15
 <Oct12-2020> <11:07:53>  === NUCLEUS:    16
 <Oct12-2020> <11:10:51>  === NUCLEUS:    17
 <Oct12-2020> <11:13:52>  === NUCLEUS:    18
 <Oct12-2020> <11:16:53>  === NUCLEUS:    19
 <Oct12-2020> <11:19:53>  === NUCLEUS:    20
 <Oct12-2020> <11:22:54>  === NUCLEUS:    21
 <Oct12-2020> <11:25:50>  === NUCLEUS:    22
 <Oct12-2020> <11:28:47>  === NUCLEUS:    23
 <Oct12-2020> <11:31:48>  === NUCLEUS:    24
 <Oct12-2020> <11:34:52>  === NUCLEUS:    25
 <Oct12-2020> <11:37:49>  === NUCLEUS:    26
 <Oct12-2020> <11:40:46>  === NUCLEUS:    27
 <Oct12-2020> <11:43:43>  === NUCLEUS:    28
 <Oct12-2020> <11:46:39>  === NUCLEUS:    29
 <Oct12-2020> <11:49:39>  >>>> CALC_HESS_PMAT
 <Oct12-2020> <11:50:24>  >>>> CALC_HESS_WMAT
 <Oct12-2020> <11:50:32>  NORMAL TERMINATION
 <Oct12-2020> <11:50:33>  END
