
 *******************************************************************************
 *                                                                             *
 *  -------------------------------------                                      *
 *   Amsterdam Density Functional  (ADF)         2019                          *
 *  -------------------------------------                                      *
 *                                               r79301 2019-11-09             *
 *                                                                             *
 *                                                                             *
 *                            =====================                            *
 *                            |                   |                            *
 *                            |     D I R A C     |                            *
 *                            |                   |                            *
 *                            =====================                            *
 *                                                                             *
 *                                                                             *
 *   Online information and documentation:  https://www.scm.com/support/       *
 *   E-mail:  support@scm.com   info@scm.com                                   *
 *                                                                             *
 *   Scientific publications using ADF results must be properly referenced     *
 *   See the User Manuals (or the web site) for recommended citations          *
 *   The terms and conditions of the End User License Agreement apply to       *
 *   the use of ADF, https://www.scm.com/license-terms/                        *
 *                                                                             *
 **********************  x86_64_linux_intel / intelmpi  ************************
 
 
 
  
 DIRAC 2019  RunTime: Sep08-2020 11:55:28  Nodes: 1  Procs: 1

 Temporary files are created in /scratch/kid_0.2094348969 (0x58465342)

1
 OXYGEN ATOM 1s CORE RELATIVISTIC, Point Nuc, A and c from li
 N J RN H ZN XION ANUC CLIGHT
 5000    4100.00000000197.36710137  8.00000000  0.00000000   15.994914  0.1370360E+03
  PH   PHI     EPS        DEL        DELRVR
  0.30  0.30     2500.00  0.00001000  0.00001000
 IDIRC  NC1  NDEBU NPRIN  IPUN IRCOR IWCOR
   1   300     0     0     0     0     1
   XALPHA      XLATTER      RNUC
  0.70000000  0.00000000  0.00000000 Point Charge
   XN   XL   XJ      XE          XZ      XDELL
  1.0  0.0  0.5      -5.000       2.000     0.00000
  2.0  0.0  0.5      -1.000       2.000     0.00000
  2.0  1.0  0.5      -1.000       2.000     0.00000
  2.0  1.0  1.5      -1.000       2.000     0.00000
 ICORP=  0  NPCL=  0  DEMP=0.00  PEPS=0.000000
 R(1)=  0.1000000E-08 D=  0.1005080E+01 RNUC=  0.0000000E+00
 converged at cycle   28  DENSITY AVERAGING    0.2400
  MAXIMUM ERROR IN R.V(R) IS   0.81125670E-05
 Q,EY,EV,EZ,ESUM,ETOT,RHO  0.800000E+01 -0.101247E+02 -0.114961E+03 -0.177573E+03 -0.405053E+02 -0.743427E+02  0.414766E-14


 DIRAC CALCULATION
1                    OXYGEN ATOM 1s CORE RELATIVISTIC, Point Nuc, A and c from libtc


 EXCHANGE COEFFICIENT=  0.7000000           TAIL CORRECTION=  0.           NUCLEAR RADIUS=  0.000E+00
0                       ORBITAL    N    L    J     ELECTRONS     EIGENVALUE                DELTA OF EIGENV.

                          1S1/2  1.0  0.0  0.5     2.000       -0.1880014E+02                 0.7264358E-06
                          2S1/2  2.0  0.0  0.5     2.000       -0.8412236E+00                 0.5932752E-05
                          2P1/2  2.0  1.0  0.5     2.000       -0.3063203E+00                 0.5998471E-05
                          2P3/2  2.0  1.0  1.5     2.000       -0.3049609E+00                 0.5986971E-05


                                        NUCLEAR CHARGE=    8.000000
                            INTEGRAL OF CHARGE DENSITY=    8.000000
                           SUM OF THE ORBITAL ENERGIES=    -40.5053
                                          TOTAL ENERGY=    -74.3427
                                        KINETIC ENERGY=     74.4552
                             NUCLEAR ATTRACTION ENERGY=   -177.5730
                             ELECTRON REPULSION ENERGY=     36.3686
                                       EXCHANGE ENERGY=     -7.5935

 *******************************************************************************

                             D I R A C   E X I T
 NORMAL TERMINATION



 =================
 Timing Statistics
 =================
  
 Total Used :                     CPU=        0.10      System=        0.00     Elapsed=        0.12

 Calls  Section                     ( Mean, Percentage )
 ---------------------------------------------------------------------------------------------------
     2  ><      ................      0.00    0.00             0.00    0.00             0.00    0.00
     1  EXIT PROCEDURE .........      0.10  100.00             0.00  100.00             0.12  100.00


 Currently Open Files (EXIT00)
 ====================

 Unit    Access Format  Status   Type       Ident (file)
 -------------------------------------------------------
   3      SEQ    FORM   TRANSP  NORMAL      LOGFILE
                                          ( logfile )
 
Create O   file=TZP-O.1s
XC
  GGA PBE
End
relativistic ZORA
Corepotentials t12.rel
End

 *******************************************************************************
 *                                                                             *
 *  -------------------------------------                                      *
 *   Amsterdam Density Functional  (ADF)         2019                          *
 *  -------------------------------------                                      *
 *                                               r79301 2019-11-09             *
 *                                                                             *
 *                                                                             *
 *                              =================                              *
 *                              |               |                              *
 *                              |     A D F     |                              *
 *                              |               |                              *
 *                              =================                              *
 *                                                                             *
 *                                                                             *
 *   Online information and documentation:  https://www.scm.com/support/       *
 *   E-mail:  support@scm.com   info@scm.com                                   *
 *                                                                             *
 *   Scientific publications using ADF results must be properly referenced     *
 *   See the User Manuals (or the web site) for recommended citations          *
 *   The terms and conditions of the End User License Agreement apply to       *
 *   the use of ADF, https://www.scm.com/license-terms/                        *
 *                                                                             *
 **********************  x86_64_linux_intel / intelmpi  ************************
 
 
 
  
 ADF 2019  RunTime: Sep08-2020 11:55:28  Nodes: 1  Procs: 1

 Temporary files are created in /scratch/kid_0.400784200 (0x58465342)

 Oxygen (TZP, 1s frozen)



 ===========================
 A T T A C H E D   F I L E S
 ===========================
  
 CREATE - Data File:    TZP-O.1s
                        Oxygen (TZP, 1s frozen)
 Core Potentials:
         file : t12.rel



 ===============================
 M O D E L   P A R A M E T E R S
 ===============================
  
 DENSITY FUNCTIONAL POTENTIAL (scf)
    LDA:                               PW92                                    == Not Default ==
    Gradient Corrections:              PBEc PBEx                               == Not Default ==

 SPIN  (restricted / unrestr.)
    Molecule:                          Restricted                               

 OTHER ASPECTS
    Relativistic Corrections:          scalar (ZORA,MAPA)                      == Not Default ==

    Nuclear Charge Density Model:      Point Charge Nuclei                      
    Core Treatment:                    Frozen Orbital(s)                        

    Hyperfine or Zeeman Interaction:   ---                                      



 =====================================
 S Y M M E T R Y ,   E L E C T R O N S
 =====================================
  
 Symmetry: ATOM

 Irreducible Representations, including subspecies
 -------------------------------------------------
 S
 P:x  P:y  P:z
 D:z2  D:x2-y2  D:xy  D:xz  D:yz
 F:z3  F:z  F:xyz  F:z2x  F:z2y  F:x  F:y


 Configuration of Valence Electrons
 ==================================

          Occupation Numbers
          -------------------------------------------------
 S        2
 P        4
 D        0
 F        0
          -------------------------------------------------

 Total:   6

 Net Charge: 0 (Nuclei minus Electrons)

 Preset values for MO occupations will be applied through SCF cycle no. 1000000
 Thereafter, the program will assign electrons to MOs that are spatially
 similar to the occupied MOs in a "reference" cycle ("KeepOrbitals").
 The reference cycle is always the PREVIOUS cycle: it will evolve with
 the SCF procedure.



 ================================
 (Slater-type)  F U N C T I O N S  ***  (Basis and Fit)  ***
 ================================
  

 Atom Type    1  (O)
 ==============

 Valence Basis Sets:   8
 -----------------------
   1 S    7.360000
   2 S    1.720000
   2 S    2.880000
   2 S    7.580000
   2 P    1.120000
   2 P    2.080000
   2 P    4.080000
   3 D    2.000000

 Frozen Core Shells
 ------------------
    S:  1


 BAS: List of all Elementary Cartesian Basis Functions
 =====================================================

 The numbering in the list below (to the right of the function characteristics) is referred
 to in print-outs of MO eigenvectors and Mulliken populations in the BAS representation
 (as contrasted to the SFO representation).

 Notes:
 1. The functions are characterized by a polynomial prefactor (powers of x,y,z and r) and
    an exponential decay factor alpha.
 2. Since the basis sets are specific for an atom TYPE, the individual functions occur on
    all atoms of that type.
 3. The word 'Core' in the left margin signals that it is a Core Function (CF) : not a
    degree of freedom in the valence set, but only used to ensure orthogonalization of
    the other valence basis functions on the frozen Core Orbitals.


 (power of) X  Y  Z  R     Alpha  on Atom
            ==========     =====     ==========

 O                                    1
                                  ---------------------------------------------------------------------------
    Core    0  0  0  0     7.360      1
            0  0  0  1     1.720      2
            0  0  0  1     2.880      3
            0  0  0  1     7.580      4
            1  0  0  0     1.120      5
            0  1  0  0     1.120      6
            0  0  1  0     1.120      7
            1  0  0  0     2.080      8
            0  1  0  0     2.080      9
            0  0  1  0     2.080     10
            1  0  0  0     4.080     11
            0  1  0  0     4.080     12
            0  0  1  0     4.080     13
            2  0  0  0     2.000     14
            1  1  0  0     2.000     15
            1  0  1  0     2.000     16
            0  2  0  0     2.000     17
            0  1  1  0     2.000     18
            0  0  2  0     2.000     19

 Total number of charge fitting functions (nprimf)        82
 Total number of Cartesian basis functions (naos)         19
 Total number of Cartesian core functions  (ncos)          1



 BAS: List of all Elementary Cartesian Basis Functions
 =====================================================

 The numbering in the list below (to the right of the function characteristics) is referred
 to in print-outs of MO eigenvectors and Mulliken populations in the BAS representation
 (as contrasted to the SFO representation).

 Notes:
 1. The functions are characterized by a polynomial prefactor (powers of x,y,z and r) and
    an exponential decay factor alpha.
 2. Since the basis sets are specific for an atom TYPE, the individual functions occur on
    all atoms of that type.
 3. The word 'Core' in the left margin signals that it is a Core Function (CF) : not a
    degree of freedom in the valence set, but only used to ensure orthogonalization of
    the other valence basis functions on the frozen Core Orbitals.


 (power of) X  Y  Z  R     Alpha  on Atom
            ==========     =====     ==========

 O                                    1
                                  ---------------------------------------------------------------------------
    Core    0  0  0  0     7.360      1
            0  0  0  1     1.720      2
            0  0  0  1     2.880      3
            0  0  0  1     7.580      4
            1  0  0  0     1.120      5
            0  1  0  0     1.120      6
            0  0  1  0     1.120      7
            1  0  0  0     2.080      8
            0  1  0  0     2.080      9
            0  0  1  0     2.080     10
            1  0  0  0     4.080     11
            0  1  0  0     4.080     12
            0  0  1  0     4.080     13
            2  0  0  0     2.000     14
            1  1  0  0     2.000     15
            1  0  1  0     2.000     16
            0  2  0  0     2.000     17
            0  1  1  0     2.000     18
            0  0  2  0     2.000     19
1
 ***************************************************************************************************



                                              ***********************
                                              *  T E C H N I C A L  *
                                              ***********************
  



 =============================================================
 P A R A L L E L I Z A T I O N  and  V E C T O R I Z A T I O N
 =============================================================
  
 Nr of parallel processes:                                1
 Maximum vector length in NumInt loops:                 128



 =====================
 S C F   U P D A T E S
 =====================
  
 Max. nr. of cycles:                               300
 Convergence criterion:                              0.0000000100
   secondary criterion:                              0.0000000100

 Mix parameter (when DIIS does not apply):           0.2000000000
 Special mix parameter for the first cycle:          1.0000000000
 Mixed ADIIS+SDIIS will be used                  
    Max number of expansion vectors:                10
    Pure ADIIS when Max([F,P]) is above              0.1000000000
    Pure SDIIS when Max([F,P]) is below              0.0010000000
 Automatic ElectronSmearing (in case of problematic SCF convergence) disabled



 =================
 P R E C I S I O N  ***  (General: NumInt, NeglectFunctionTails, ...)  ***
 =================
  

 NumInt:           Target precision:                12.0000000000
 -------           Initial precision:               10.0000000000
                   Min. precision (optimization):   10.0000000000

 Neglect Functions:          Basis functions:        0.1000000000E-13
 ------------------          Fit functions:          0.1000000000E-13



 ===========================
 L I N E A R   S C A L I N G
 ===========================
  

 Cut-off radii density fit:                        0.1000000000E-97
 Overlap cut-off criterion AO matrix elements:     0.1000000000E-97
 Cut-offs for Coulomb potential and fitted density:0.1000000000E-97
 Cut-off criterion for Coulomb multipole terms:    0.1000000000E-97
 Progressive Convergence parameter:                 0.000000000    
1
 ***************************************************************************************************



                                            ***************************
                                            *  C O M P U T A T I O N  *
                                            ***************************
  

 Number of elements of the density matrix on this node (used, total):       190       190



 ===========================================
 Numerical Integration : Fuzzy Cells (Becke)
 ===========================================
  
 Becke grid quality: VERYGOOD       
  
 Lebedev angular grid order:             min:  13 max:  41
 Nr. of radial points:                   min:  68 max:  68

 Total nr. of points:         68
 Nr. of blocks:                1
 Block length:                68
 Nr. of dummy points:          0


 Test of Precision of the Numerical Integration Grid
 ===================================================

 Integral of the Total Core Density:                   1.99999999865610
 Relative Error:                                      -6.720E-10



 ========================
 Density Fitting (zlmFit)
 ========================
  
 ZlmFit Fit Quality: VERYGOOD       
  
 Max L-expansion:                        min:   0 max:   0
 Nr. of radial interpolation points:     min: 140 max: 140



 =====
 S C F  ***  ScaSCF  ***
 =====
  

 CYCLE    1
 SCF Error: norm([F,P])=      0.000000000000, max([F,P])=      0.000000000000
 orbitals (Q,E):
 ---------------
 S :1...3            ( 2.00    -5.3654)  ( 0.00    -2.2073)  ( 0.00    23.6692)
 P :1...3            ( 4.00    -5.0045)  ( 0.00    -2.0150)  ( 0.00    -0.3846)
 D :1...1            ( 0.00    -2.0410)

 CYCLE    2
 SCF Error: norm([F,P])=      4.562993374873, max([F,P])=      2.528971113813
 orbitals (Q,E):
 ---------------
 S :1...2            ( 2.00    -0.1548)  ( 0.00     1.6948)
 P :1...2            ( 4.00     0.1773)  ( 0.00     0.9552)
 D :1...1            ( 0.00     1.4649)

 CYCLE    3
  SDIIS (wt  0.000):  0.3378  0.6622
 A-DIIS (wt  1.000):  0.4814  0.5186
  DIIS coefficients:  0.4814  0.5186
 SCF Error: norm([F,P])=      2.723155250500, max([F,P])=      1.798667049295
 orbitals (Q,E):
 ---------------
 S :1...2            ( 2.00    -1.1093)  ( 0.00     0.7549)
 P :1...2            ( 4.00    -0.5518)  ( 0.00     0.2590)
 D :1...1            ( 0.00     0.8910)

 CYCLE    4
  SDIIS (wt  0.000):  0.0919  0.9081
 A-DIIS (wt  1.000):  0.0000  1.0000
  DIIS coefficients:  0.0000  1.0000
 SCF Error: norm([F,P])=      0.289027138405, max([F,P])=      0.130648623511
 orbitals (Q,E):
 ---------------
 S :1...2            ( 2.00    -0.7707)  ( 0.00     0.9912)
 P :1...2            ( 4.00    -0.2284)  ( 0.00     0.4046)
 D :1...1            ( 0.00     1.1288)

 CYCLE    5
  SDIIS (wt  0.000):  0.0260  0.6740  0.3001
 A-DIIS (wt  1.000):  0.0000  0.5764  0.4236
  DIIS coefficients:  0.0000  0.5764  0.4236
 SCF Error: norm([F,P])=      0.416615089426, max([F,P])=      0.232643669786
 orbitals (Q,E):
 ---------------
 S :1...2            ( 2.00    -0.8764)  ( 0.00     0.9107)
 P :1...2            ( 4.00    -0.3280)  ( 0.00     0.3557)
 D :1...1            ( 0.00     1.0703)

 CYCLE    6
  SDIIS (wt  0.942):  0.0005  0.0237 -0.0203  0.9960
 A-DIIS (wt  0.058):  0.0000  0.0000  0.0000  1.0000
  DIIS coefficients:  0.0005  0.0224 -0.0191  0.9962
 SCF Error: norm([F,P])=      0.013723272809, max([F,P])=      0.006719036732
 orbitals (Q,E):
 ---------------
 S :1...2            ( 2.00    -0.8830)  ( 0.00     0.9058)
 P :1...2            ( 4.00    -0.3343)  ( 0.00     0.3521)
 D :1...1            ( 0.00     1.0657)

 CYCLE    7
  SDIIS (wt  1.000): -0.0000  0.0016  0.0023  0.0424  0.9537
  DIIS coefficients: -0.0000  0.0016  0.0023  0.0424  0.9537
 SCF Error: norm([F,P])=      0.001103645928, max([F,P])=      0.000634039171
 orbitals (Q,E):
 ---------------
 S :1...2            ( 2.00    -0.8827)  ( 0.00     0.9060)
 P :1...2            ( 4.00    -0.3340)  ( 0.00     0.3523)
 D :1...1            ( 0.00     1.0659)

 CYCLE    8
  SDIIS (wt  1.000): -0.0000 -0.0001  0.0000 -0.0032  0.0268  0.9765
  DIIS coefficients: -0.0000 -0.0001  0.0000 -0.0032  0.0268  0.9765
 SCF Error: norm([F,P])=      0.000035919805, max([F,P])=      0.000020263970
 orbitals (Q,E):
 ---------------
 S :1...2            ( 2.00    -0.8827)  ( 0.00     0.9060)
 P :1...2            ( 4.00    -0.3340)  ( 0.00     0.3522)
 D :1...1            ( 0.00     1.0659)

 CYCLE    9
  SDIIS (wt  1.000): -0.0000  0.0008  0.0188  0.9804
  DIIS coefficients: -0.0000  0.0008  0.0188  0.9804
 SCF Error: norm([F,P])=      0.000000326384, max([F,P])=      0.000000183924
 orbitals (Q,E):
 ---------------
 S :1...2            ( 2.00    -0.8827)  ( 0.00     0.9060)
 P :1...2            ( 4.00    -0.3340)  ( 0.00     0.3522)
 D :1...1            ( 0.00     1.0659)

 CYCLE   10
  SDIIS (wt  1.000):  0.0000  0.0003  0.9996
  DIIS coefficients:  0.0000  0.0003  0.9996
 SCF Error: norm([F,P])=      0.000000000559, max([F,P])=      0.000000000306
 orbitals (Q,E):
 ---------------
 S :1...2            ( 2.00    -0.8827)  ( 0.00     0.9060)
 P :1...2            ( 4.00    -0.3340)  ( 0.00     0.3522)
 D :1...1            ( 0.00     1.0659)

 SCF CONVERGED

 CYCLE   11
1
 ***************************************************************************************************



                                                *******************
                                                *  R E S U L T S  *
                                                *******************
  
 *** Using FIT density in Focky
  SDIIS (wt  1.000): -0.0000  0.0143  0.9857
  DIIS coefficients: -0.0000  0.0143  0.9857
 SCF Error: norm([F,P])=      0.000000000010, max([F,P])=      0.000000000006

 Scaled ZORA Orbital Energies, per Irrep and Spin:
 =================================================
                        Occup              E (au)              E (eV)       Diff (eV) with prev. cycle
                        -----      --------------------        ------       --------------------------
 S
               1        2.000     -0.88272313143209E+00       -24.020              -9.28E-11
               2        0.000      0.90601345014671E+00        24.654
               3        0.000      0.29578810816937E+02       804.880
 P
               1        4.000     -0.33400585272070E+00        -9.089              -8.94E-11
               2        0.000      0.35224911365993E+00         9.585
               3        0.000      0.38342927625315E+01       104.336
 D
               1        0.000      0.10658965783141E+01        29.005


 Partially Occupied:
               1 P                -0.33400585272070E+00
  
 HOMO :        1 S                -0.88272313143209E+00
 LUMO :        2 P                 0.35224911365993E+00
  


 Orbital Energies, all Irreps
 ========================================

 Irrep        no.  (spin)   Occup              E (au)                E (eV)
 ---------------------------------------------------------------------------
 S             1             2.00       -0.88272313143209E+00       -24.0201
 P             1             4.00       -0.33400585272070E+00        -9.0888
 P             2             0.00        0.35224911365993E+00         9.5852
 S             2             0.00        0.90601345014671E+00        24.6539
 D             1             0.00        0.10658965783141E+01        29.0045
 P             3             0.00        0.38342927625315E+01       104.3364
 S             3             0.00        0.29578810816937E+02       804.8804


 Scaled ZORA Orbital Energies of the Core Orbitals:
 ==================================================

 (Note that the atoms are grouped by atomtype, see the labels, and may hence NOT be in input order)

 AtomType  Orbital  Atom                   E (au)                        E (eV)
 --------  -------  ----           --------------------        ----------------
 O           1S        1          -0.18925919758629E+02                -515.000



 =======================================
 M U L L I K E N   P O P U L A T I O N S
 =======================================
  
 The survey below gives for each atom:
 a) the total charge (Z minus electrons)
 b) the net spin polarization (nr of electrons spin-A minus spin-B)
 c) for each spin the atomic electron valence density (integrated) per L-value.

 Atom              Charge    Spin density          S         P         D         F
 ----              ------    ------------       ------    ------    ------    ------
 1 O              -0.0000                       2.0000    4.0000    0.0000    0.0000

 Populations of individual BAS functions
 ----------------------------------------
 1 O            0.0005  0.9226  1.0966 -0.0196  0.3346  0.3346  0.3346  0.7512  0.7512  0.7512
                0.2476  0.2476  0.2476  0.0000  0.0000  0.0000  0.0000  0.0000  0.0000

 Gross Charges per Atom (Z minus electrons)
 ==========================================
            -0.0000
 Net Total: -0.00000000



 =======================================================================
 Electrostatic potential at the Nuclei due to electrons and other nuclei
 =======================================================================
  
         Atom                  Potential
         ----                  ---------
     1)   O                  22.20265662
 
 
 ========================
 No memory problems found
 ========================
 
 Maximum number of active allocate calls:         389
 
 *******************************************************************************

                             A D F   E X I T
 NORMAL TERMINATION



 =================
 Timing Statistics
 =================
  
 Total Used :                     CPU=        0.43      System=        0.02     Elapsed=        0.48

 Calls  Section                     ( Mean, Percentage )
 ---------------------------------------------------------------------------------------------------
     3  ><      ................      0.00    0.93             0.00    0.00             0.00    0.90
     1  INIT    ................      0.07   15.89             0.00   20.00             0.08   16.53
     1  GEOMET  ................      0.02    3.74             0.00   20.00             0.02    4.79
     1  INPUTA  ................      0.00    0.93             0.00    0.00             0.00    0.70
     1  MAINSY  ................      0.00    0.93             0.00   20.00             0.01    2.80
     1  SYMFIT  ................      0.00    0.93             0.00    0.00             0.00    0.34
     1  CORORT  ................      0.00    0.00             0.00    0.00             0.00    0.30
     1  SYMORB  ................      0.00    0.00             0.00    0.00             0.00    0.18
     1  CLSMAT  ................      0.00    0.93             0.00    0.00             0.01    1.20
     1  ORTHON  ................      0.01    1.87             0.00    0.00             0.01    1.08
     1  GENPT   ................      0.01    1.87             0.00   20.00             0.01    3.08
     1  PTBAS   ................      0.00    0.93             0.00    0.00             0.01    1.14
    11  FOCKY   ................      0.02   55.14             0.00   20.00             0.02   51.32
    11  FOCKTR  ................      0.00    1.87             0.00    0.00             0.00    1.56
    11  SDIIS   ................      0.00    6.54             0.00    0.00             0.00    6.21
     1  COREPS  ................      0.02    3.74             0.00    0.00             0.02    3.64
     1  POPAN   ................      0.00    0.93             0.00    0.00             0.01    1.12
     1  DEBYE   ................      0.00    0.00             0.00    0.00             0.00    0.38
     1  EXIT PROCEDURE .........      0.01    2.80             0.00    0.00             0.01    2.74


 Currently Open Files (EXIT00)
 ====================

 Unit    Access Format  Status   Type       Ident (file)
 -------------------------------------------------------
   3      SEQ    FORM   TRANSP  NORMAL      LOGFILE
                                          ( logfile )

 ***************************************************************************************************
 (LOGFILE)
 <Sep08-2020> <11:55:28>  DIRAC 2019  RunTime: Sep08-2020 11:55:28  Nodes: 1  Procs: 1
 <Sep08-2020> <11:55:28>  NORMAL TERMINATION
 <Sep08-2020> <11:55:28>  END
 <Sep08-2020> <11:55:28>  ADF 2019  RunTime: Sep08-2020 11:55:28  Nodes: 1  Procs: 1
 <Sep08-2020> <11:55:28>  Oxygen (TZP, 1s frozen)
 <Sep08-2020> <11:55:28>  RunType   : CREATE
 <Sep08-2020> <11:55:28>  Net Charge: 0 (Nuclei minus Electrons)
 <Sep08-2020> <11:55:28>  Symmetry  : ATOM
  Coordinates
    Atom         X           Y           Z   (Angstrom)
    1.O         0.000000    0.000000    0.000000
 <Sep08-2020> <11:55:28>  >>>> CORORT
 <Sep08-2020> <11:55:28>  >>>> CLSMAT
 <Sep08-2020> <11:55:28>  >>>> ORTHON
 <Sep08-2020> <11:55:28>  >>>> GENPT
 <Sep08-2020> <11:55:28>  Block Length=  68
 <Sep08-2020> <11:55:28>  >>>> PTBAS
 <Sep08-2020> <11:55:28>  >>>> CYCLE
 <Sep08-2020> <11:55:28>              |Error|         MaxErr       Wt(A-DIIS)
 <Sep08-2020> <11:55:28>      1      0.00000000      0.00000000
 <Sep08-2020> <11:55:29>      2      4.56299337      2.52897111
 <Sep08-2020> <11:55:29>      3      2.72315525      1.79866705    100.0
 <Sep08-2020> <11:55:29>      4      0.28902714      0.13064862    100.0
 <Sep08-2020> <11:55:29>      5      0.41661509      0.23264367    100.0
 <Sep08-2020> <11:55:29>      6      0.01372327      0.00671904      5.8
 <Sep08-2020> <11:55:29>      7      0.00110365      0.00063404      0.0
 <Sep08-2020> <11:55:29>      8      0.00003592      0.00002026      0.0
 <Sep08-2020> <11:55:29>      9      0.00000033      0.00000018      0.0
 <Sep08-2020> <11:55:29>     10      0.00000000      0.00000000      0.0
 <Sep08-2020> <11:55:29>  SCF converged
 <Sep08-2020> <11:55:29>     11      0.00000000      0.00000000      0.0
 <Sep08-2020> <11:55:29>  >>>> POPAN
 <Sep08-2020> <11:55:29>  >>>> DEBYE
 <Sep08-2020> <11:55:29>  NORMAL TERMINATION
 <Sep08-2020> <11:55:29>  END

 *******************************************************************************
 *                                                                             *
 *  -------------------------------------                                      *
 *   Amsterdam Density Functional  (ADF)         2019                          *
 *  -------------------------------------                                      *
 *                                               r79301 2019-11-09             *
 *                                                                             *
 *                                                                             *
 *                            =====================                            *
 *                            |                   |                            *
 *                            |     D I R A C     |                            *
 *                            |                   |                            *
 *                            =====================                            *
 *                                                                             *
 *                                                                             *
 *   Online information and documentation:  https://www.scm.com/support/       *
 *   E-mail:  support@scm.com   info@scm.com                                   *
 *                                                                             *
 *   Scientific publications using ADF results must be properly referenced     *
 *   See the User Manuals (or the web site) for recommended citations          *
 *   The terms and conditions of the End User License Agreement apply to       *
 *   the use of ADF, https://www.scm.com/license-terms/                        *
 *                                                                             *
 **********************  x86_64_linux_intel / intelmpi  ************************
 
 
 
  
 DIRAC 2019  RunTime: Sep08-2020 11:55:29  Nodes: 1  Procs: 1

 Temporary files are created in /scratch/kid_0.298370862 (0x58465342)

1
 TUNGSTEN ATOM 4d CORE RELATIVISTIC, Point Nuc, A and c from 
 N J RN H ZN XION ANUC CLIGHT
 5000   22100.00000000197.36710137 74.00000000  0.00000000  183.950932  0.1370360E+03
  PH   PHI     EPS        DEL        DELRVR
  0.30  0.30     2500.00  0.00001000  0.00001000
 IDIRC  NC1  NDEBU NPRIN  IPUN IRCOR IWCOR
   1   300     0     0     0     0    14
   XALPHA      XLATTER      RNUC
  0.70000000  0.00000000  0.00000000 Point Charge
   XN   XL   XJ      XE          XZ      XDELL
  1.0  0.0  0.5   -2600.000       2.000     0.00000
  2.0  0.0  0.5    -425.000       2.000     0.00000
  2.0  1.0  0.5    -425.000       2.000     0.00000
  2.0  1.0  1.5    -425.000       4.000     0.00000
  3.0  0.0  0.5    -100.000       2.000     0.00000
  3.0  1.0  0.5    -100.000       2.000     0.00000
  3.0  1.0  1.5    -100.000       4.000     0.00000
  3.0  2.0  1.5     -80.000       4.000     0.00000
  3.0  2.0  2.5     -80.000       6.000     0.00000
  4.0  0.0  0.5     -22.000       2.000     0.00000
  4.0  1.0  0.5     -20.000       2.000     0.00000
  4.0  1.0  1.5     -20.000       4.000     0.00000
  4.0  2.0  1.5     -11.000       4.000     0.00000
  4.0  2.0  2.5     -11.000       6.000     0.00000
  4.0  3.0  2.5      -1.000       6.000     0.00000
  4.0  3.0  3.5      -1.000       8.000     0.00000
  5.0  0.0  0.5      -3.000       2.000     0.00000
  5.0  1.0  0.5      -2.200       2.000     0.00000
  5.0  1.0  1.5      -2.200       4.000     0.00000
  5.0  2.0  1.5      -0.500       4.000     0.00000
  5.0  2.0  2.5      -0.500       0.000     0.00000
  6.0  0.0  0.5      -0.200       2.000     0.00000
 ICORP=  0  NPCL=  0  DEMP=0.00  PEPS=0.000000
 R(1)=  0.1000000E-08 D=  0.1005080E+01 RNUC=  0.0000000E+00
 converged at cycle   63  DENSITY AVERAGING    0.1536
  MAXIMUM ERROR IN R.V(R) IS   0.78838062E-05
 Q,EY,EV,EZ,ESUM,ETOT,RHO  0.740000E+02 -0.431420E+03 -0.281568E+05 -0.403919E+05 -0.993885E+04 -0.161643E+05  0.726391E-09


 DIRAC CALCULATION
1                    TUNGSTEN ATOM 4d CORE RELATIVISTIC, Point Nuc, A and c from libtc


 EXCHANGE COEFFICIENT=  0.7000000           TAIL CORRECTION=  0.           NUCLEAR RADIUS=  0.000E+00
0                       ORBITAL    N    L    J     ELECTRONS     EIGENVALUE                DELTA OF EIGENV.

                          1S1/2  1.0  0.0  0.5     2.000       -0.2549514E+04                 0.5980248E-04
                          2S1/2  2.0  0.0  0.5     2.000       -0.4399118E+03                 0.5052420E-04
                          2P1/2  2.0  1.0  0.5     2.000       -0.4208427E+03                 0.5265062E-04
                          2P3/2  2.0  1.0  1.5     4.000       -0.3711192E+03                 0.5139441E-04
                          3S1/2  3.0  0.0  0.5     2.000       -0.1012881E+03                 0.3437035E-04
                          3P1/2  3.0  1.0  0.5     2.000       -0.9277148E+02                 0.3553128E-04
                          3P3/2  3.0  1.0  1.5     4.000       -0.8201733E+02                 0.3404634E-04
                          3D3/2  3.0  2.0  1.5     4.000       -0.6762803E+02                 0.3680712E-04
                          3D5/2  3.0  2.0  2.5     6.000       -0.6528623E+02                 0.3629511E-04
                          4S1/2  4.0  0.0  0.5     2.000       -0.2084139E+02                 0.1939427E-04
                          4P1/2  4.0  1.0  0.5     2.000       -0.1730737E+02                 0.1933978E-04
                          4P3/2  4.0  1.0  1.5     4.000       -0.1480597E+02                 0.1810922E-04
                          4D3/2  4.0  2.0  1.5     4.000       -0.8989319E+01                 0.1779394E-04
                          4D5/2  4.0  2.0  2.5     6.000       -0.8528007E+01                 0.1741170E-04
                          4F5/2  4.0  3.0  2.5     6.000       -0.1237480E+01                 0.1544089E-04
                          4F7/2  4.0  3.0  3.5     8.000       -0.1154634E+01                 0.1522033E-04
                          5S1/2  5.0  0.0  0.5     2.000       -0.2863514E+01                 0.7979521E-05
                          5P1/2  5.0  1.0  0.5     2.000       -0.1813289E+01                 0.7246225E-05
                          5P3/2  5.0  1.0  1.5     4.000       -0.1448762E+01                 0.6602120E-05
                          5D3/2  5.0  2.0  1.5     4.000       -0.1486933E+00                 0.3973088E-05
                          5D5/2  5.0  2.0  2.5     0.000       -0.1223153E+00                 0.3735081E-05
                          6S1/2  6.0  0.0  0.5     2.000       -0.1847434E+00                 0.1808440E-05


                                        NUCLEAR CHARGE=   74.000000
                            INTEGRAL OF CHARGE DENSITY=   74.000000
                           SUM OF THE ORBITAL ENERGIES=  -9938.8529
                                          TOTAL ENERGY= -16164.2530
                                        KINETIC ENERGY=  18217.9700
                             NUCLEAR ATTRACTION ENERGY= -40391.9132
                             ELECTRON REPULSION ENERGY=   6333.2551
                                       EXCHANGE ENERGY=   -323.5649

 *******************************************************************************

                             D I R A C   E X I T
 NORMAL TERMINATION



 =================
 Timing Statistics
 =================
  
 Total Used :                     CPU=        0.67      System=        0.01     Elapsed=        0.70

 Calls  Section                     ( Mean, Percentage )
 ---------------------------------------------------------------------------------------------------
     2  ><      ................      0.00    0.00             0.00    0.00             0.00    0.00
     1  EXIT PROCEDURE .........      0.67  100.00             0.01  100.00             0.70  100.00


 Currently Open Files (EXIT00)
 ====================

 Unit    Access Format  Status   Type       Ident (file)
 -------------------------------------------------------
   3      SEQ    FORM   TRANSP  NORMAL      LOGFILE
                                          ( logfile )
 
Create W   file=TZP-W.4d
XC
  GGA PBE
End
relativistic ZORA
Corepotentials t12.rel
End

 *******************************************************************************
 *                                                                             *
 *  -------------------------------------                                      *
 *   Amsterdam Density Functional  (ADF)         2019                          *
 *  -------------------------------------                                      *
 *                                               r79301 2019-11-09             *
 *                                                                             *
 *                                                                             *
 *                              =================                              *
 *                              |               |                              *
 *                              |     A D F     |                              *
 *                              |               |                              *
 *                              =================                              *
 *                                                                             *
 *                                                                             *
 *   Online information and documentation:  https://www.scm.com/support/       *
 *   E-mail:  support@scm.com   info@scm.com                                   *
 *                                                                             *
 *   Scientific publications using ADF results must be properly referenced     *
 *   See the User Manuals (or the web site) for recommended citations          *
 *   The terms and conditions of the End User License Agreement apply to       *
 *   the use of ADF, https://www.scm.com/license-terms/                        *
 *                                                                             *
 **********************  x86_64_linux_intel / intelmpi  ************************
 
 
 
  
 ADF 2019  RunTime: Sep08-2020 11:55:30  Nodes: 1  Procs: 1

 Temporary files are created in /scratch/kid_0.1658597399 (0x58465342)

 Tungsten (TZP, 4d frozen)



 ===========================
 A T T A C H E D   F I L E S
 ===========================
  
 CREATE - Data File:    TZP-W.4d
                        Tungsten (TZP, 4d frozen)
 Core Potentials:
         file : t12.rel



 ===============================
 M O D E L   P A R A M E T E R S
 ===============================
  
 DENSITY FUNCTIONAL POTENTIAL (scf)
    LDA:                               PW92                                    == Not Default ==
    Gradient Corrections:              PBEc PBEx                               == Not Default ==

 SPIN  (restricted / unrestr.)
    Molecule:                          Restricted                               

 OTHER ASPECTS
    Relativistic Corrections:          scalar (ZORA,MAPA)                      == Not Default ==

    Nuclear Charge Density Model:      Point Charge Nuclei                      
    Core Treatment:                    Frozen Orbital(s)                        

    Hyperfine or Zeeman Interaction:   ---                                      



 =====================================
 S Y M M E T R Y ,   E L E C T R O N S
 =====================================
  
 Symmetry: ATOM

 Irreducible Representations, including subspecies
 -------------------------------------------------
 S
 P:x  P:y  P:z
 D:z2  D:x2-y2  D:xy  D:xz  D:yz
 F:z3  F:z  F:xyz  F:z2x  F:z2y  F:x  F:y


 Configuration of Valence Electrons
 ==================================

          Occupation Numbers
          -------------------------------------------------
 S        2*2
 P        6
 D        4
 F        14
          -------------------------------------------------

 Total:   28

 Net Charge: 0 (Nuclei minus Electrons)

 Preset values for MO occupations will be applied through SCF cycle no. 1000000
 Thereafter, the program will assign electrons to MOs that are spatially
 similar to the occupied MOs in a "reference" cycle ("KeepOrbitals").
 The reference cycle is always the PREVIOUS cycle: it will evolve with
 the SCF procedure.



 ================================
 (Slater-type)  F U N C T I O N S  ***  (Basis and Fit)  ***
 ================================
  

 Atom Type    1  (W)
 ==============

 Valence Basis Sets:  25
 -----------------------
   1 S   52.000000
   2 S   33.250000
   3 S   19.100000
   4 S   11.650000
   2 P   36.850000
   3 P   16.500000
   4 P   11.550000
   3 D   20.100000
   4 D   10.300000
   1 S  163.900000
   5 S    6.050000
   5 S    3.950000
   6 S    2.850000
   6 S    1.800000
   6 S    1.140000
   5 P    5.900000
   5 P    4.000000
   5 P    2.700000
   5 D    4.150000
   5 D    2.250000
   5 D    1.200000
   4 F   13.550000
   4 F    7.050000
   4 F    3.550000
   6 P    1.800000

 Frozen Core Shells
 ------------------
    S:  4
    P:  3
    D:  2


 BAS: List of all Elementary Cartesian Basis Functions
 =====================================================

 The numbering in the list below (to the right of the function characteristics) is referred
 to in print-outs of MO eigenvectors and Mulliken populations in the BAS representation
 (as contrasted to the SFO representation).

 Notes:
 1. The functions are characterized by a polynomial prefactor (powers of x,y,z and r) and
    an exponential decay factor alpha.
 2. Since the basis sets are specific for an atom TYPE, the individual functions occur on
    all atoms of that type.
 3. The word 'Core' in the left margin signals that it is a Core Function (CF) : not a
    degree of freedom in the valence set, but only used to ensure orthogonalization of
    the other valence basis functions on the frozen Core Orbitals.


 (power of) X  Y  Z  R     Alpha  on Atom
            ==========     =====     ==========

 W                                    1
                                  ---------------------------------------------------------------------------
    Core    0  0  0  0    52.000      1
    Core    0  0  0  1    33.250      2
    Core    0  0  0  2    19.100      3
    Core    0  0  0  3    11.650      4
    Core    1  0  0  0    36.850      5
    Core    0  1  0  0    36.850      6
    Core    0  0  1  0    36.850      7
    Core    1  0  0  1    16.500      8
    Core    0  1  0  1    16.500      9
    Core    0  0  1  1    16.500     10
    Core    1  0  0  2    11.550     11
    Core    0  1  0  2    11.550     12
    Core    0  0  1  2    11.550     13
    Core    2  0  0  0    20.100     14
    Core    1  1  0  0    20.100     15
    Core    1  0  1  0    20.100     16
    Core    0  2  0  0    20.100     17
    Core    0  1  1  0    20.100     18
    Core    0  0  2  0    20.100     19
    Core    2  0  0  1    10.300     20
    Core    1  1  0  1    10.300     21
    Core    1  0  1  1    10.300     22
    Core    0  2  0  1    10.300     23
    Core    0  1  1  1    10.300     24
    Core    0  0  2  1    10.300     25
            0  0  0  0   163.900     26
            0  0  0  4     6.050     27
            0  0  0  4     3.950     28
            0  0  0  5     2.850     29
            0  0  0  5     1.800     30
            0  0  0  5     1.140     31
            1  0  0  3     5.900     32
            0  1  0  3     5.900     33
            0  0  1  3     5.900     34
            1  0  0  3     4.000     35
            0  1  0  3     4.000     36
            0  0  1  3     4.000     37
            1  0  0  3     2.700     38
            0  1  0  3     2.700     39
            0  0  1  3     2.700     40
            2  0  0  2     4.150     41
            1  1  0  2     4.150     42
            1  0  1  2     4.150     43
            0  2  0  2     4.150     44
            0  1  1  2     4.150     45
            0  0  2  2     4.150     46
            2  0  0  2     2.250     47
            1  1  0  2     2.250     48
            1  0  1  2     2.250     49
            0  2  0  2     2.250     50
            0  1  1  2     2.250     51
            0  0  2  2     2.250     52
            2  0  0  2     1.200     53
            1  1  0  2     1.200     54
            1  0  1  2     1.200     55
            0  2  0  2     1.200     56
            0  1  1  2     1.200     57
            0  0  2  2     1.200     58
            3  0  0  0    13.550     59
            2  1  0  0    13.550     60
            2  0  1  0    13.550     61
            1  2  0  0    13.550     62
            1  1  1  0    13.550     63
            1  0  2  0    13.550     64
            0  3  0  0    13.550     65
            0  2  1  0    13.550     66
            0  1  2  0    13.550     67
            0  0  3  0    13.550     68
            3  0  0  0     7.050     69
            2  1  0  0     7.050     70
            2  0  1  0     7.050     71
            1  2  0  0     7.050     72
            1  1  1  0     7.050     73
            1  0  2  0     7.050     74
            0  3  0  0     7.050     75
            0  2  1  0     7.050     76
            0  1  2  0     7.050     77
            0  0  3  0     7.050     78
            3  0  0  0     3.550     79
            2  1  0  0     3.550     80
            2  0  1  0     3.550     81
            1  2  0  0     3.550     82
            1  1  1  0     3.550     83
            1  0  2  0     3.550     84
            0  3  0  0     3.550     85
            0  2  1  0     3.550     86
            0  1  2  0     3.550     87
            0  0  3  0     3.550     88
            1  0  0  4     1.800     89
            0  1  0  4     1.800     90
            0  0  1  4     1.800     91

 Total number of charge fitting functions (nprimf)       329
 Total number of Cartesian basis functions (naos)         91
 Total number of Cartesian core functions  (ncos)         25



 BAS: List of all Elementary Cartesian Basis Functions
 =====================================================

 The numbering in the list below (to the right of the function characteristics) is referred
 to in print-outs of MO eigenvectors and Mulliken populations in the BAS representation
 (as contrasted to the SFO representation).

 Notes:
 1. The functions are characterized by a polynomial prefactor (powers of x,y,z and r) and
    an exponential decay factor alpha.
 2. Since the basis sets are specific for an atom TYPE, the individual functions occur on
    all atoms of that type.
 3. The word 'Core' in the left margin signals that it is a Core Function (CF) : not a
    degree of freedom in the valence set, but only used to ensure orthogonalization of
    the other valence basis functions on the frozen Core Orbitals.


 (power of) X  Y  Z  R     Alpha  on Atom
            ==========     =====     ==========

 W                                    1
                                  ---------------------------------------------------------------------------
    Core    0  0  0  0    52.000      1
    Core    0  0  0  1    33.250      2
    Core    0  0  0  2    19.100      3
    Core    0  0  0  3    11.650      4
    Core    1  0  0  0    36.850      5
    Core    0  1  0  0    36.850      6
    Core    0  0  1  0    36.850      7
    Core    1  0  0  1    16.500      8
    Core    0  1  0  1    16.500      9
    Core    0  0  1  1    16.500     10
    Core    1  0  0  2    11.550     11
    Core    0  1  0  2    11.550     12
    Core    0  0  1  2    11.550     13
    Core    2  0  0  0    20.100     14
    Core    1  1  0  0    20.100     15
    Core    1  0  1  0    20.100     16
    Core    0  2  0  0    20.100     17
    Core    0  1  1  0    20.100     18
    Core    0  0  2  0    20.100     19
    Core    2  0  0  1    10.300     20
    Core    1  1  0  1    10.300     21
    Core    1  0  1  1    10.300     22
    Core    0  2  0  1    10.300     23
    Core    0  1  1  1    10.300     24
    Core    0  0  2  1    10.300     25
            0  0  0  0   163.900     26
            0  0  0  4     6.050     27
            0  0  0  4     3.950     28
            0  0  0  5     2.850     29
            0  0  0  5     1.800     30
            0  0  0  5     1.140     31
            1  0  0  3     5.900     32
            0  1  0  3     5.900     33
            0  0  1  3     5.900     34
            1  0  0  3     4.000     35
            0  1  0  3     4.000     36
            0  0  1  3     4.000     37
            1  0  0  3     2.700     38
            0  1  0  3     2.700     39
            0  0  1  3     2.700     40
            2  0  0  2     4.150     41
            1  1  0  2     4.150     42
            1  0  1  2     4.150     43
            0  2  0  2     4.150     44
            0  1  1  2     4.150     45
            0  0  2  2     4.150     46
            2  0  0  2     2.250     47
            1  1  0  2     2.250     48
            1  0  1  2     2.250     49
            0  2  0  2     2.250     50
            0  1  1  2     2.250     51
            0  0  2  2     2.250     52
            2  0  0  2     1.200     53
            1  1  0  2     1.200     54
            1  0  1  2     1.200     55
            0  2  0  2     1.200     56
            0  1  1  2     1.200     57
            0  0  2  2     1.200     58
            3  0  0  0    13.550     59
            2  1  0  0    13.550     60
            2  0  1  0    13.550     61
            1  2  0  0    13.550     62
            1  1  1  0    13.550     63
            1  0  2  0    13.550     64
            0  3  0  0    13.550     65
            0  2  1  0    13.550     66
            0  1  2  0    13.550     67
            0  0  3  0    13.550     68
            3  0  0  0     7.050     69
            2  1  0  0     7.050     70
            2  0  1  0     7.050     71
            1  2  0  0     7.050     72
            1  1  1  0     7.050     73
            1  0  2  0     7.050     74
            0  3  0  0     7.050     75
            0  2  1  0     7.050     76
            0  1  2  0     7.050     77
            0  0  3  0     7.050     78
            3  0  0  0     3.550     79
            2  1  0  0     3.550     80
            2  0  1  0     3.550     81
            1  2  0  0     3.550     82
            1  1  1  0     3.550     83
            1  0  2  0     3.550     84
            0  3  0  0     3.550     85
            0  2  1  0     3.550     86
            0  1  2  0     3.550     87
            0  0  3  0     3.550     88
            1  0  0  4     1.800     89
            0  1  0  4     1.800     90
            0  0  1  4     1.800     91
1
 ***************************************************************************************************



                                              ***********************
                                              *  T E C H N I C A L  *
                                              ***********************
  



 =============================================================
 P A R A L L E L I Z A T I O N  and  V E C T O R I Z A T I O N
 =============================================================
  
 Nr of parallel processes:                                1
 Maximum vector length in NumInt loops:                 128



 =====================
 S C F   U P D A T E S
 =====================
  
 Max. nr. of cycles:                               300
 Convergence criterion:                              0.0000000100
   secondary criterion:                              0.0000000100

 Mix parameter (when DIIS does not apply):           0.2000000000
 Special mix parameter for the first cycle:          1.0000000000
 Mixed ADIIS+SDIIS will be used                  
    Max number of expansion vectors:                10
    Pure ADIIS when Max([F,P]) is above              0.1000000000
    Pure SDIIS when Max([F,P]) is below              0.0010000000
 Automatic ElectronSmearing (in case of problematic SCF convergence) disabled



 =================
 P R E C I S I O N  ***  (General: NumInt, NeglectFunctionTails, ...)  ***
 =================
  

 NumInt:           Target precision:                12.0000000000
 -------           Initial precision:               10.0000000000
                   Min. precision (optimization):   10.0000000000

 Neglect Functions:          Basis functions:        0.1000000000E-13
 ------------------          Fit functions:          0.1000000000E-13



 ===========================
 L I N E A R   S C A L I N G
 ===========================
  

 Cut-off radii density fit:                        0.1000000000E-97
 Overlap cut-off criterion AO matrix elements:     0.1000000000E-97
 Cut-offs for Coulomb potential and fitted density:0.1000000000E-97
 Cut-off criterion for Coulomb multipole terms:    0.1000000000E-97
 Progressive Convergence parameter:                 0.000000000    
1
 ***************************************************************************************************



                                            ***************************
                                            *  C O M P U T A T I O N  *
                                            ***************************
  

 Number of elements of the density matrix on this node (used, total):      4186      4186



 ===========================================
 Numerical Integration : Fuzzy Cells (Becke)
 ===========================================
  
 Becke grid quality: VERYGOOD       
  
 Lebedev angular grid order:             min:  13 max:  41
 Nr. of radial points:                   min: 145 max: 145

 Total nr. of points:        145
 Nr. of blocks:                2
 Block length:                73
 Nr. of dummy points:          1


 Test of Precision of the Numerical Integration Grid
 ===================================================

 Integral of the Total Core Density:                  46.00000002324492
 Relative Error:                                       5.053E-10



 ========================
 Density Fitting (zlmFit)
 ========================
  
 ZlmFit Fit Quality: VERYGOOD       
  
 Max L-expansion:                        min:   0 max:   0
 Nr. of radial interpolation points:     min: 340 max: 340



 =====
 S C F  ***  ScaSCF  ***
 =====
  

 CYCLE    1
 SCF Error: norm([F,P])=      0.000000000000, max([F,P])=      0.000000000000
 orbitals (Q,E):
 ---------------
 S :1...6            ( 2.00   -28.2058)  ( 2.00   -16.4725)  ( 0.00   -10.3738)  ( 0.00    -6.6321)
                     ( 0.00    -4.0998)  ( 0.00  3013.3587)
 P :1...4            ( 6.00   -26.2502)  ( 0.00   -15.6809)  ( 0.00   -10.1451)  ( 0.00    -6.3840)
 D :1...3            ( 4.00   -20.3774)  ( 0.00   -10.3968)  ( 0.00    -5.4917)
 F :1...3            (14.00   -35.0607)  ( 0.00   -19.0417)  ( 0.00   -12.0152)

 CYCLE    2
  SDIIS (wt  0.000):  1.0000  0.0000
 A-DIIS (wt  1.000):  0.1993  0.8007
  DIIS coefficients:  0.1993  0.8007
 SCF Error: norm([F,P])=     40.907082825658, max([F,P])=      9.977402120499
 orbitals (Q,E):
 ---------------
 S :1...3            ( 2.00    -4.6780)  ( 2.00    -1.8638)  ( 0.00    -0.9989)
 P :1...2            ( 6.00    -3.4915)  ( 0.00    -1.5122)
 D :1...2            ( 4.00    -2.0619)  ( 0.00    -1.0071)
 F :1...2            (14.00    -1.8107)  ( 0.00     1.1317)

 CYCLE    3
  SDIIS (wt  0.000):  0.3180  0.6820
 A-DIIS (wt  1.000):  0.2378  0.7622
  DIIS coefficients:  0.2378  0.7622
 SCF Error: norm([F,P])=     22.137766809988, max([F,P])=      7.956550621467
 orbitals (Q,E):
 ---------------
 S :1...3            ( 2.00    -3.1832)  ( 2.00    -0.0954)  ( 0.00     0.0950)
 P :1...2            ( 6.00    -1.7164)  ( 0.00     0.0796)
 D :1...2            ( 4.00    -0.0523)  ( 0.00     0.2166)
 F :1...2            (14.00    -2.9552)  ( 0.00     2.1680)

 CYCLE    4
  SDIIS (wt  0.000): -0.1470  0.2408  0.9063
 A-DIIS (wt  1.000):  0.0000  0.1960  0.8040
  DIIS coefficients:  0.0000  0.1960  0.8040
 SCF Error: norm([F,P])=     11.319258211122, max([F,P])=      3.388378774288
 orbitals (Q,E):
 ---------------
 S :1...3            ( 2.00    -2.5382)  ( 2.00    -0.1744)  ( 0.00     0.0568)
 P :1...2            ( 6.00    -1.3109)  ( 0.00     0.0041)
 D :1...2            ( 4.00    -0.0593)  ( 0.00     0.1840)
 F :1...2            (14.00    -0.4483)  ( 0.00     2.6543)

 CYCLE    5
  SDIIS (wt  0.000): -0.0453 -0.0639  0.4150  0.6941
 A-DIIS (wt  1.000):  0.0000  0.0000  0.2956  0.7044
  DIIS coefficients:  0.0000  0.0000  0.2956  0.7044
 SCF Error: norm([F,P])=      6.468352795626, max([F,P])=      2.222974642389
 orbitals (Q,E):
 ---------------
 S :1...3            ( 2.00    -3.2723)  ( 2.00    -0.3187)  ( 0.00     0.0098)
 P :1...2            ( 6.00    -1.9237)  ( 0.00    -0.1006)
 D :1...2            ( 4.00    -0.3847)  ( 0.00     0.0899)
 F :1...2            (14.00    -1.8198)  ( 0.00     1.9560)

 CYCLE    6
  SDIIS (wt  0.000): -0.0085 -0.0399  0.0839  0.4322  0.5323
 A-DIIS (wt  1.000):  0.0000  0.0000  0.0000  0.2109  0.7891
  DIIS coefficients:  0.0000  0.0000  0.0000  0.2109  0.7891
 SCF Error: norm([F,P])=      2.472496419763, max([F,P])=      0.770355067313
 orbitals (Q,E):
 ---------------
 S :1...3            ( 2.00    -2.6997)  ( 2.00    -0.1670)  ( 0.00     0.0637)
 P :1...2            ( 6.00    -1.4226)  ( 0.00     0.0144)
 D :1...2            ( 4.00    -0.0756)  ( 0.00     0.1818)
 F :1...2            (14.00    -0.9561)  ( 0.00     2.4590)

 CYCLE    7
  SDIIS (wt  0.000): -0.0027  0.0194 -0.0224 -0.1264  0.3712  0.7611
 A-DIIS (wt  1.000):  0.0000  0.0000  0.0000  0.0000  0.2987  0.7013
  DIIS coefficients:  0.0000  0.0000  0.0000  0.0000  0.2987  0.7013
 SCF Error: norm([F,P])=      1.326888571519, max([F,P])=      0.409877416513
 orbitals (Q,E):
 ---------------
 S :1...3            ( 2.00    -2.9765)  ( 2.00    -0.2356)  ( 0.00     0.0368)
 P :1...2            ( 6.00    -1.6652)  ( 0.00    -0.0389)
 D :1...2            ( 4.00    -0.2166)  ( 0.00     0.1330)
 F :1...2            (14.00    -1.3505)  ( 0.00     2.2150)

 CYCLE    8
  SDIIS (wt  0.000): -0.0001 -0.0032  0.0101  0.0022 -0.1365  0.1637  0.9637
 A-DIIS (wt  1.000):  0.0000  0.0000  0.0000  0.0000  0.0000  0.1133  0.8867
  DIIS coefficients:  0.0000  0.0000  0.0000  0.0000  0.0000  0.1133  0.8867
 SCF Error: norm([F,P])=      0.417265552811, max([F,P])=      0.123103983384
 orbitals (Q,E):
 ---------------
 S :1...3            ( 2.00    -2.8269)  ( 2.00    -0.1934)  ( 0.00     0.0514)
 P :1...2            ( 6.00    -1.5319)  ( 0.00    -0.0062)
 D :1...2            ( 4.00    -0.1328)  ( 0.00     0.1598)
 F :1...2            (14.00    -1.1429)  ( 0.00     2.3483)

 CYCLE    9
  SDIIS (wt  0.000): -0.0000 -0.0005  0.0032 -0.0055 -0.0134 -0.0769  0.3889  0.7044
 A-DIIS (wt  1.000):  0.0000  0.0000  0.0000  0.0000  0.0000  0.0000  0.4605  0.5395
  DIIS coefficients:  0.0000  0.0000  0.0000  0.0000  0.0000  0.0000  0.4605  0.5395
 SCF Error: norm([F,P])=      0.436344656895, max([F,P])=      0.135977974745
 orbitals (Q,E):
 ---------------
 S :1...3            ( 2.00    -2.8921)  ( 2.00    -0.2089)  ( 0.00     0.0455)
 P :1...2            ( 6.00    -1.5884)  ( 0.00    -0.0182)
 D :1...2            ( 4.00    -0.1653)  ( 0.00     0.1491)
 F :1...2            (14.00    -1.2444)  ( 0.00     2.2903)

 CYCLE   10
  SDIIS (wt  0.791): -0.0000 -0.0000 -0.0008  0.0050  0.0002 -0.0572  0.0662  0.2518  0.7349
 A-DIIS (wt  0.209):  0.0000  0.0000  0.0000  0.0000  0.0000  0.0000  0.0000  0.0000  1.0000
  DIIS coefficients: -0.0000 -0.0000 -0.0006  0.0039  0.0002 -0.0453  0.0524  0.1992  0.7903
 SCF Error: norm([F,P])=      0.064290018174, max([F,P])=      0.021683563602
 orbitals (Q,E):
 ---------------
 S :1...3            ( 2.00    -2.8892)  ( 2.00    -0.2088)  ( 0.00     0.0453)
 P :1...2            ( 6.00    -1.5864)  ( 0.00    -0.0182)
 D :1...2            ( 4.00    -0.1648)  ( 0.00     0.1492)
 F :1...2            (14.00    -1.2344)  ( 0.00     2.2932)

 CYCLE   11
  SDIIS (wt  0.943):  0.0000  0.0000  0.0003 -0.0019 -0.0002  0.0169 -0.0071 -0.0713  1.0633
 A-DIIS (wt  0.057):  0.0000  0.0000  0.0000  0.0000  0.0000  0.0000  0.0000  0.0000  1.0000
  DIIS coefficients:  0.0000  0.0000  0.0003 -0.0018 -0.0002  0.0159 -0.0067 -0.0673  1.0597
 SCF Error: norm([F,P])=      0.019862243149, max([F,P])=      0.006614525832
 orbitals (Q,E):
 ---------------
 S :1...3            ( 2.00    -2.8906)  ( 2.00    -0.2091)  ( 0.00     0.0452)
 P :1...2            ( 6.00    -1.5875)  ( 0.00    -0.0184)
 D :1...2            ( 4.00    -0.1654)  ( 0.00     0.1490)
 F :1...2            (14.00    -1.2376)  ( 0.00     2.2919)

 CYCLE   12
  SDIIS (wt  1.000):  0.0000 -0.0000  0.0001  0.0002 -0.0010 -0.0025  0.0027  1.0005
  DIIS coefficients:  0.0000 -0.0000  0.0001  0.0002 -0.0010 -0.0025  0.0027  1.0005
 SCF Error: norm([F,P])=      0.001704368638, max([F,P])=      0.000557703294
 orbitals (Q,E):
 ---------------
 S :1...3            ( 2.00    -2.8904)  ( 2.00    -0.2090)  ( 0.00     0.0452)
 P :1...2            ( 6.00    -1.5874)  ( 0.00    -0.0184)
 D :1...2            ( 4.00    -0.1653)  ( 0.00     0.1490)
 F :1...2            (14.00    -1.2373)  ( 0.00     2.2920)

 CYCLE   13
  SDIIS (wt  1.000): -0.0000 -0.0000 -0.0000 -0.0001  0.0001 -0.0012  0.0054  0.1443  0.8513
  DIIS coefficients: -0.0000 -0.0000 -0.0000 -0.0001  0.0001 -0.0012  0.0054  0.1443  0.8513
 SCF Error: norm([F,P])=      0.000011644128, max([F,P])=      0.000003087302
 orbitals (Q,E):
 ---------------
 S :1...3            ( 2.00    -2.8904)  ( 2.00    -0.2090)  ( 0.00     0.0452)
 P :1...2            ( 6.00    -1.5874)  ( 0.00    -0.0184)
 D :1...2            ( 4.00    -0.1653)  ( 0.00     0.1490)
 F :1...2            (14.00    -1.2373)  ( 0.00     2.2920)

 CYCLE   14
  SDIIS (wt  1.000): -0.0000 -0.0001 -0.0006 -0.0016  1.0022
  DIIS coefficients: -0.0000 -0.0001 -0.0006 -0.0016  1.0022
 SCF Error: norm([F,P])=      0.000000013756, max([F,P])=      0.000000003650
 orbitals (Q,E):
 ---------------
 S :1...3            ( 2.00    -2.8904)  ( 2.00    -0.2090)  ( 0.00     0.0452)
 P :1...2            ( 6.00    -1.5874)  ( 0.00    -0.0184)
 D :1...2            ( 4.00    -0.1653)  ( 0.00     0.1490)
 F :1...2            (14.00    -1.2373)  ( 0.00     2.2920)

 SCF CONVERGED

 CYCLE   15
1
 ***************************************************************************************************



                                                *******************
                                                *  R E S U L T S  *
                                                *******************
  
 *** Using FIT density in Focky
  SDIIS (wt  1.000): -0.0000 -0.0000 -0.0330  1.0330
  DIIS coefficients: -0.0000 -0.0000 -0.0330  1.0330
 SCF Error: norm([F,P])=      0.000000001904, max([F,P])=      0.000000000603

 Scaled ZORA Orbital Energies, per Irrep and Spin:
 =================================================
                        Occup              E (au)              E (eV)       Diff (eV) with prev. cycle
                        -----      --------------------        ------       --------------------------
 S
               1        2.000     -0.28904146058127E+01       -78.652               1.69E-08
               2        2.000     -0.20903700188629E+00        -5.688               1.07E-08
               3        0.000      0.45235059600390E-01         1.231
               4        0.000      0.56065479131102E+00        15.256
               5        0.000      0.33274541694695E+01        90.545
               6        0.000      0.30455860934223E+04     82874.614
 P
               1        6.000     -0.15873724268739E+01       -43.195               1.66E-08
               2        0.000     -0.18381804002204E-01        -0.500
               3        0.000      0.75931517673518E+00        20.662
               4        0.000      0.46642512103918E+01       126.921
 D
               1        4.000     -0.16528259673378E+00        -4.498               1.44E-08
               2        0.000      0.14901440684398E+00         4.055
               3        0.000      0.12244232958062E+01        33.318
 F
               1       14.000     -0.12372769632872E+01       -33.668               2.06E-08
               2        0.000      0.22920435821192E+01        62.370
               3        0.000      0.17401159156906E+02       473.510


 Partially Occupied:
               1 D                -0.16528259673378E+00
  
 HOMO :        2 S                -0.20903700188629E+00
 LUMO :        2 P                -0.18381804002204E-01
  


 Orbital Energies, all Irreps
 ========================================

 Irrep        no.  (spin)   Occup              E (au)                E (eV)
 ---------------------------------------------------------------------------
 S             1             2.00       -0.28904146058127E+01       -78.6522
 P             1             6.00       -0.15873724268739E+01       -43.1946
 F             1            14.00       -0.12372769632872E+01       -33.6680
 S             2             2.00       -0.20903700188629E+00        -5.6882
 D             1             4.00       -0.16528259673378E+00        -4.4976
 P             2             0.00       -0.18381804002204E-01        -0.5002
 S             3             0.00        0.45235059600390E-01         1.2309
 D             2             0.00        0.14901440684398E+00         4.0549
 S             4             0.00        0.56065479131102E+00        15.2562
 P             3             0.00        0.75931517673518E+00        20.6620
 D             3             0.00        0.12244232958062E+01        33.3183
 F             2             0.00        0.22920435821192E+01        62.3697
 S             5             0.00        0.33274541694695E+01        90.5446
 P             4             0.00        0.46642512103918E+01       126.9207
 F             3             0.00        0.17401159156906E+02       473.5096
 S             6             0.00        0.30455860934223E+04     82874.6143


 Scaled ZORA Orbital Energies of the Core Orbitals:
 ==================================================

 (Note that the atoms are grouped by atomtype, see the labels, and may hence NOT be in input order)

 AtomType  Orbital  Atom                   E (au)                        E (eV)
 --------  -------  ----           --------------------        ----------------
 W           1S        1          -0.25482138824004E+04              -69340.428
             2S        1          -0.43960984780021E+03              -11962.393
             3S        1          -0.10127263228126E+03               -2755.769
             4S        1          -0.20907119428712E+02                -568.912
             2P        1          -0.38417169137868E+03              -10453.844
             3P        1          -0.84864891065853E+02               -2309.291
             4P        1          -0.15541477299623E+02                -422.905
             3D        1          -0.66165082684733E+02               -1800.444
             4D        1          -0.87737511763508E+01                -238.746



 =======================================
 M U L L I K E N   P O P U L A T I O N S
 =======================================
  
 The survey below gives for each atom:
 a) the total charge (Z minus electrons)
 b) the net spin polarization (nr of electrons spin-A minus spin-B)
 c) for each spin the atomic electron valence density (integrated) per L-value.

 Atom              Charge    Spin density          S         P         D         F
 ----              ------    ------------       ------    ------    ------    ------
 1 W              -0.0000                       4.0000    6.0000    4.0000   14.0000

 Populations of individual BAS functions
 ----------------------------------------
 1 W           -0.0024 -0.0016  0.0017  0.0821  0.0004  0.0004  0.0004 -0.0190 -0.0190 -0.0190
                0.1070  0.1070  0.1070  0.0007  0.0011  0.0011  0.0007  0.0011  0.0007  0.0102
                0.0153  0.0153  0.0102  0.0153  0.0102  0.0002  1.3184  0.6637  0.7095  1.0512
                0.1771  0.5899  0.5899  0.5899  1.2256  1.2256  1.2256  0.0879  0.0879  0.0879
                0.2040  0.3059  0.3059  0.2040  0.3059  0.2040  0.2699  0.4048  0.4048  0.2699
                0.4048  0.2699  0.0486  0.0728  0.0728  0.0486  0.0728  0.0486  0.2159  0.4319
                0.4319  0.4319  0.5399  0.4319  0.2159  0.4319  0.4319  0.2159  0.4698  0.9397
                0.9397  0.9397  1.1746  0.9397  0.4698  0.9397  0.9397  0.4698  0.1142  0.2284
                0.2284  0.2284  0.2855  0.2284  0.1142  0.2284  0.2284  0.1142  0.0081  0.0081
                0.0081

 Gross Charges per Atom (Z minus electrons)
 ==========================================
            -0.0000
 Net Total: -0.00000000



 =======================================================================
 Electrostatic potential at the Nuclei due to electrons and other nuclei
 =======================================================================
  
         Atom                  Potential
         ----                  ---------
     1)   W                 545.46052106
 
 
 ========================
 No memory problems found
 ========================
 
 Maximum number of active allocate calls:         487
 
 *******************************************************************************

                             A D F   E X I T
 NORMAL TERMINATION



 =================
 Timing Statistics
 =================
  
 Total Used :                     CPU=        1.23      System=        0.03     Elapsed=        1.31

 Calls  Section                     ( Mean, Percentage )
 ---------------------------------------------------------------------------------------------------
     3  ><      ................      0.00    0.33             0.00   14.28             0.00    0.31
     1  INIT    ................      0.07    5.54             0.01   28.57             0.08    6.13
     1  GEOMET  ................      0.02    1.30             0.00    0.00             0.03    2.24
     1  INPUTA  ................      0.00    0.00             0.00    0.00             0.00    0.28
     1  MAINSY  ................      0.02    1.63             0.00    0.00             0.02    1.60
     1  SYMFIT  ................      0.00    0.00             0.00    0.00             0.00    0.12
     1  CORORT  ................      0.00    0.00             0.00    0.00             0.00    0.14
     1  SYMORB  ................      0.00    0.00             0.00    0.00             0.00    0.08
     1  CLSMAT  ................      0.01    0.65             0.00   14.28             0.01    0.52
     1  ORTHON  ................      0.00    0.33             0.00    0.00             0.01    0.46
     1  GENPT   ................      0.02    1.95             0.00    0.00             0.03    2.01
     1  PTBAS   ................      0.00    0.33             0.00    0.00             0.01    0.56
    15  FOCKY   ................      0.06   76.55             0.00   28.57             0.06   74.27
    15  FOCKTR  ................      0.00    3.91             0.00    0.00             0.00    0.99
    15  SDIIS   ................      0.00    0.65             0.00    0.00             0.00    3.58
     1  COREPS  ................      0.06    4.89             0.00   14.28             0.06    4.72
     1  POPAN   ................      0.00    0.33             0.00    0.00             0.01    0.50
     1  DEBYE   ................      0.00    0.33             0.00    0.00             0.00    0.18
     1  EXIT PROCEDURE .........      0.02    1.30             0.00    0.00             0.02    1.29


 Currently Open Files (EXIT00)
 ====================

 Unit    Access Format  Status   Type       Ident (file)
 -------------------------------------------------------
   3      SEQ    FORM   TRANSP  NORMAL      LOGFILE
                                          ( logfile )

 ***************************************************************************************************
 (LOGFILE)
 <Sep08-2020> <11:55:28>  DIRAC 2019  RunTime: Sep08-2020 11:55:28  Nodes: 1  Procs: 1
 <Sep08-2020> <11:55:28>  NORMAL TERMINATION
 <Sep08-2020> <11:55:28>  END
 <Sep08-2020> <11:55:28>  ADF 2019  RunTime: Sep08-2020 11:55:28  Nodes: 1  Procs: 1
 <Sep08-2020> <11:55:28>  Oxygen (TZP, 1s frozen)
 <Sep08-2020> <11:55:28>  RunType   : CREATE
 <Sep08-2020> <11:55:28>  Net Charge: 0 (Nuclei minus Electrons)
 <Sep08-2020> <11:55:28>  Symmetry  : ATOM
  Coordinates
    Atom         X           Y           Z   (Angstrom)
    1.O         0.000000    0.000000    0.000000
 <Sep08-2020> <11:55:28>  >>>> CORORT
 <Sep08-2020> <11:55:28>  >>>> CLSMAT
 <Sep08-2020> <11:55:28>  >>>> ORTHON
 <Sep08-2020> <11:55:28>  >>>> GENPT
 <Sep08-2020> <11:55:28>  Block Length=  68
 <Sep08-2020> <11:55:28>  >>>> PTBAS
 <Sep08-2020> <11:55:28>  >>>> CYCLE
 <Sep08-2020> <11:55:28>              |Error|         MaxErr       Wt(A-DIIS)
 <Sep08-2020> <11:55:28>      1      0.00000000      0.00000000
 <Sep08-2020> <11:55:29>      2      4.56299337      2.52897111
 <Sep08-2020> <11:55:29>      3      2.72315525      1.79866705    100.0
 <Sep08-2020> <11:55:29>      4      0.28902714      0.13064862    100.0
 <Sep08-2020> <11:55:29>      5      0.41661509      0.23264367    100.0
 <Sep08-2020> <11:55:29>      6      0.01372327      0.00671904      5.8
 <Sep08-2020> <11:55:29>      7      0.00110365      0.00063404      0.0
 <Sep08-2020> <11:55:29>      8      0.00003592      0.00002026      0.0
 <Sep08-2020> <11:55:29>      9      0.00000033      0.00000018      0.0
 <Sep08-2020> <11:55:29>     10      0.00000000      0.00000000      0.0
 <Sep08-2020> <11:55:29>  SCF converged
 <Sep08-2020> <11:55:29>     11      0.00000000      0.00000000      0.0
 <Sep08-2020> <11:55:29>  >>>> POPAN
 <Sep08-2020> <11:55:29>  >>>> DEBYE
 <Sep08-2020> <11:55:29>  NORMAL TERMINATION
 <Sep08-2020> <11:55:29>  END
 <Sep08-2020> <11:55:29>  DIRAC 2019  RunTime: Sep08-2020 11:55:29  Nodes: 1  Procs: 1
 <Sep08-2020> <11:55:30>  NORMAL TERMINATION
 <Sep08-2020> <11:55:30>  END
 <Sep08-2020> <11:55:30>  ADF 2019  RunTime: Sep08-2020 11:55:30  Nodes: 1  Procs: 1
 <Sep08-2020> <11:55:30>  Tungsten (TZP, 4d frozen)
 <Sep08-2020> <11:55:30>  RunType   : CREATE
 <Sep08-2020> <11:55:30>  Net Charge: 0 (Nuclei minus Electrons)
 <Sep08-2020> <11:55:30>  Symmetry  : ATOM
  Coordinates
    Atom         X           Y           Z   (Angstrom)
    1.W         0.000000    0.000000    0.000000
 <Sep08-2020> <11:55:30>  >>>> CORORT
 <Sep08-2020> <11:55:30>  >>>> CLSMAT
 <Sep08-2020> <11:55:30>  >>>> ORTHON
 <Sep08-2020> <11:55:30>  >>>> GENPT
 <Sep08-2020> <11:55:30>  Block Length=  73
 <Sep08-2020> <11:55:30>  >>>> PTBAS
 <Sep08-2020> <11:55:30>  >>>> CYCLE
 <Sep08-2020> <11:55:30>              |Error|         MaxErr       Wt(A-DIIS)
 <Sep08-2020> <11:55:30>      1      0.00000000      0.00000000
 <Sep08-2020> <11:55:30>      2     40.90708283      9.97740212    100.0
 <Sep08-2020> <11:55:30>      3     22.13776681      7.95655062    100.0
 <Sep08-2020> <11:55:30>      4     11.31925821      3.38837877    100.0
 <Sep08-2020> <11:55:30>      5      6.46835280      2.22297464    100.0
 <Sep08-2020> <11:55:30>      6      2.47249642      0.77035507    100.0
 <Sep08-2020> <11:55:30>      7      1.32688857      0.40987742    100.0
 <Sep08-2020> <11:55:30>      8      0.41726555      0.12310398    100.0
 <Sep08-2020> <11:55:30>      9      0.43634466      0.13597797    100.0
 <Sep08-2020> <11:55:30>     10      0.06429002      0.02168356     20.9
 <Sep08-2020> <11:55:31>     11      0.01986224      0.00661453      5.7
 <Sep08-2020> <11:55:31>     12      0.00170437      0.00055770      0.0
 <Sep08-2020> <11:55:31>     13      0.00001164      0.00000309      0.0
 <Sep08-2020> <11:55:31>     14      0.00000001      0.00000000      0.0
 <Sep08-2020> <11:55:31>  SCF converged
 <Sep08-2020> <11:55:31>     15      0.00000000      0.00000000      0.0
 <Sep08-2020> <11:55:31>  >>>> POPAN
 <Sep08-2020> <11:55:31>  >>>> DEBYE
 <Sep08-2020> <11:55:31>  NORMAL TERMINATION
 <Sep08-2020> <11:55:31>  END


 Parallel Execution: Process Information
 ==============================================================================
 Rank   Node Name                              NodeID   MyNodeRank  NodeMaster
 ==============================================================================


May use up to 61376MB of RAM as shared memory on node 0
 
AnalyticalFreq
end

NumericalQuality Good

QTAIM
    Enabled Yes
End

Relativistic Scalar ZORA

SOLVATION
  Surf Delley
  Solv name=Water cav0=0.0 cav1=0.0067639
  Charged method=CONJ
  C-Mat POT
  SCF VAR ALL
  CSMRSP
  Radii
    H=1.30
    O=1.72
    W=1.992
  SubEnd
end

ScanFreq -1000 0

XC
  GGA PBE
end

atoms
      1         W      4.167109      3.594183      6.824219
      2         W      6.526707      3.922705     10.217967
      3         W      4.031808      1.923089      9.704690
      4         W      3.306696      6.604349      8.144941
      5         W      7.337082      7.026932      9.015173
      6         W      4.705700      8.703315     10.179705
      7         O      5.090274      3.479516      8.826116
      8         O      7.083845      5.154453      8.741244
      9         O      3.334913      2.128705      7.880271
     10         O      4.501202      5.463927      7.010313
     11         O      2.267033      5.302671      8.711158
[...]
 <Sep08-2020> <12:06:32>  energy change                      -0.00002809     0.00100000    T
 <Sep08-2020> <12:06:32>  constrained gradient max            0.00095748     0.00100000    T
 <Sep08-2020> <12:06:32>  constrained gradient rms            0.00025483     0.00066667    T
 <Sep08-2020> <12:06:32>  gradient max                        0.00095748
 <Sep08-2020> <12:06:32>  gradient rms                        0.00025483
 <Sep08-2020> <12:06:32>  cart. step max                      0.00962677     0.01000000    T
 <Sep08-2020> <12:06:32>  cart. step rms                      0.00364529     0.00666667    T
 <Sep08-2020> <12:06:32>  GEOMETRY CONVERGED
 <Sep08-2020> <12:06:32>  Calculating Energy Terms for Final Geometry
  Coordinates in Geometry Cycle 9
    Atom         X           Y           Z   (Angstrom)
    1.W         4.115822    3.555080    6.855861
    2.W         6.507856    3.951679   10.191652
    3.W         4.073633    1.901494    9.707689
    4.W         3.351193    6.626561    8.097885
    5.W         7.337087    7.054380    9.043686
    6.W         4.704308    8.684176   10.174274
    7.O         5.078446    3.481780    8.814273
    8.O         7.072554    5.182608    8.771477
    9.O         3.331685    2.108479    7.908311
   10.O         4.466916    5.426030    7.019358
   11.O         2.261943    5.387927    8.700199
   12.O         7.723094    7.735508    7.482373
   13.O         4.384386    8.583561   11.898377
   14.O         6.650431    8.486407   10.183573
   15.O         6.371895    5.166640   11.452353
   16.O         5.413456    2.888171    5.895774
   17.O         4.593093   10.364650    9.673407
   18.O         5.162748    7.106429    8.906236
   19.O         3.023049    8.002127    9.475081
   20.O         2.749346    3.638189    5.753112
   21.O         8.029418    3.101125   10.376734
   22.O         2.597284    2.004994   10.653287
   23.O         5.357169    2.569428   11.005569
   24.O         8.877728    6.982942    9.887657
   25.O         2.578386    7.470988    6.770030
   26.O         4.570826    0.218800    9.614570
 <Sep08-2020> <12:06:32>  >>>> CORORT
 <Sep08-2020> <12:06:32>  >>>> CLSMAT
 <Sep08-2020> <12:06:32>  >>>> ORTHON
 <Sep08-2020> <12:06:33>  >>>> GENPT
 <Sep08-2020> <12:06:33>  Block Length= 128
 <Sep08-2020> <12:06:33>  >>>> PTBAS
 <Sep08-2020> <12:06:36>  combining surface points...
 <Sep08-2020> <12:06:36>  combining surface points...
 <Sep08-2020> <12:06:36>  combining surface points...
 <Sep08-2020> <12:06:36>  >>>> CYCLE
 <Sep08-2020> <12:06:40>              |Error|         MaxErr       Wt(A-DIIS)
 <Sep08-2020> <12:06:40>      1      0.07841310      0.00741400
 <Sep08-2020> <12:06:43>      2      0.23060011      0.02793446    100.0
 <Sep08-2020> <12:06:46>      3      0.08129682      0.00848988    100.0
 <Sep08-2020> <12:06:49>      4      0.13309554      0.01527865    100.0
 <Sep08-2020> <12:06:52>      5      0.16733156      0.02123050    100.0
 <Sep08-2020> <12:06:55>      6      0.05009805      0.00531782      4.4
 <Sep08-2020> <12:06:58>      7      0.03458691      0.00555119      4.4
 <Sep08-2020> <12:07:01>      8      0.01038718      0.00140795      0.4
 <Sep08-2020> <12:07:04>      9      0.00374379      0.00050746      0.0
 <Sep08-2020> <12:07:07>     10      0.00252371      0.00026361      0.0
 <Sep08-2020> <12:07:09>     11      0.00049407      0.00006546      0.0
 <Sep08-2020> <12:07:12>     12      0.00043318      0.00007876      0.0
 <Sep08-2020> <12:07:15>     13      0.00023972      0.00003272      0.0
 <Sep08-2020> <12:07:18>     14      0.00003881      0.00000603      0.0
 <Sep08-2020> <12:07:20>     15      0.00003098      0.00000424      0.0
 <Sep08-2020> <12:07:23>     16      0.00001521      0.00000205      0.0
 <Sep08-2020> <12:07:26>     17      0.00000621      0.00000068      0.0
 <Sep08-2020> <12:07:27>  SCF converged
 <Sep08-2020> <12:07:28>     18      0.00000655      0.00000088      0.0
 <Sep08-2020> <12:07:31>  >>>> TOTEN
 <Sep08-2020> <12:07:38>  QTAIM: determining topology...
 <Sep08-2020> <12:07:49>  >>>> POPAN
 <Sep08-2020> <12:07:49>  >>>> DEBYE
 <Sep08-2020> <12:07:49>  >>>> AMETS
 <Sep08-2020> <12:07:49>  >>>> POPUL
 <Sep08-2020> <12:07:49>   Bond Energy          -8.72674738 a.u.
 <Sep08-2020> <12:07:49>   Bond Energy        -237.46687847 eV
 <Sep08-2020> <12:07:49>   Bond Energy       -5476.12       kcal/mol
 <Sep08-2020> <12:07:49>  >>>> ENHESS
 <Sep08-2020> <12:08:05>  === NUCLEUS:     1
 <Sep08-2020> <12:11:43>  === NUCLEUS:     2
 <Sep08-2020> <12:15:14>  === NUCLEUS:     3
 <Sep08-2020> <12:18:44>  === NUCLEUS:     4
 <Sep08-2020> <12:22:14>  === NUCLEUS:     5
 <Sep08-2020> <12:25:45>  === NUCLEUS:     6
 <Sep08-2020> <12:29:15>  === NUCLEUS:     7
 <Sep08-2020> <12:32:32>  === NUCLEUS:     8
 <Sep08-2020> <12:35:48>  === NUCLEUS:     9
 <Sep08-2020> <12:39:05>  === NUCLEUS:    10
 <Sep08-2020> <12:42:21>  === NUCLEUS:    11
 <Sep08-2020> <12:45:38>  === NUCLEUS:    12
 <Sep08-2020> <12:48:55>  === NUCLEUS:    13
 <Sep08-2020> <12:52:02>  === NUCLEUS:    14
 <Sep08-2020> <12:55:19>  === NUCLEUS:    15
 <Sep08-2020> <12:58:31>  === NUCLEUS:    16
 <Sep08-2020> <13:01:48>  === NUCLEUS:    17
 <Sep08-2020> <13:05:00>  === NUCLEUS:    18
 <Sep08-2020> <13:08:17>  === NUCLEUS:    19
 <Sep08-2020> <13:11:34>  === NUCLEUS:    20
 <Sep08-2020> <13:14:46>  === NUCLEUS:    21
 <Sep08-2020> <13:17:58>  === NUCLEUS:    22
 <Sep08-2020> <13:21:11>  === NUCLEUS:    23
 <Sep08-2020> <13:24:28>  === NUCLEUS:    24
 <Sep08-2020> <13:27:40>  === NUCLEUS:    25
 <Sep08-2020> <13:30:52>  === NUCLEUS:    26
 <Sep08-2020> <13:34:09>  >>>> CALC_HESS_PMAT
 <Sep08-2020> <13:34:49>  >>>> CALC_HESS_WMAT
 <Sep08-2020> <13:34:59>  Symmetry  : NOSYM
 <Sep08-2020> <13:34:59>  >>>> FRAGM
 <Sep08-2020> <13:34:59>  Geometry symmetry displacement    1 out of    4
  Coordinates in Geometry Cycle 9
    Atom         X           Y           Z   (Angstrom)
    1.W         4.115820    3.555082    6.855793
    2.W         6.507853    3.951865   10.191593
    3.W         4.073520    1.901784    9.707787
    4.W         3.351276    6.626401    8.097810
    5.W         7.337167    7.054395    9.043620
    6.W         4.704268    8.683850   10.174435
    7.O         5.078524    3.481853    8.814189
    8.O         7.072688    5.182625    8.771312
    9.O         3.331641    2.108591    7.908367
   10.O         4.467046    5.426031    7.019134
   11.O         2.262163    5.387549    8.699956
   12.O         7.723145    7.735622    7.482344
   13.O         4.384465    8.582903   11.898542
   14.O         6.650413    8.486315   10.183584
   15.O         6.371930    5.167029   11.452112
   16.O         5.413415    2.888028    5.895757
   17.O         4.592804   10.364395    9.673866
   18.O         5.162817    7.106403    8.906061
   19.O         3.023039    8.001698    9.475245
   20.O         2.749358    3.638168    5.753025
   21.O         8.029350    3.101232   10.376838
   22.O         2.597148    2.005472   10.653330
   23.O         5.357027    2.569825   11.005651
   24.O         8.877820    6.982986    9.887570
   25.O         2.578386    7.470948    6.770082
   26.O         4.570629    0.219053    9.614908
 <Sep08-2020> <13:34:59>  >>>> CORORT
 <Sep08-2020> <13:35:00>  >>>> CLSMAT
 <Sep08-2020> <13:35:00>  >>>> ORTHON
 <Sep08-2020> <13:35:00>  >>>> GENPT
 <Sep08-2020> <13:35:00>  Block Length= 128
 <Sep08-2020> <13:35:00>  >>>> PTBAS
 <Sep08-2020> <13:35:03>  combining surface points...
 <Sep08-2020> <13:35:03>  combining surface points...
 <Sep08-2020> <13:35:03>  combining surface points...
 <Sep08-2020> <13:35:03>  >>>> CYCLE
 <Sep08-2020> <13:35:07>              |Error|         MaxErr       Wt(A-DIIS)
 <Sep08-2020> <13:35:07>      1      0.08027302      0.00751418
 <Sep08-2020> <13:35:10>      2      0.23060907      0.02182102    100.0
 <Sep08-2020> <13:35:13>      3      0.08132402      0.00755785    100.0
 <Sep08-2020> <13:35:16>      4      0.13338375      0.01164902    100.0
 <Sep08-2020> <13:35:19>      5      0.16650695      0.01876349    100.0
 <Sep08-2020> <13:35:22>      6      0.05035735      0.00553011      4.6
 <Sep08-2020> <13:35:25>      7      0.03491789      0.00550440      4.5
 <Sep08-2020> <13:35:28>      8      0.01043512      0.00111761      0.1
 <Sep08-2020> <13:35:31>      9      0.00372876      0.00052595      0.0
 <Sep08-2020> <13:35:34>     10      0.00252446      0.00027604      0.0
 <Sep08-2020> <13:35:36>     11      0.00049519      0.00006719      0.0
 <Sep08-2020> <13:35:39>     12      0.00043389      0.00006844      0.0
 <Sep08-2020> <13:35:42>     13      0.00023994      0.00002692      0.0
 <Sep08-2020> <13:35:45>     14      0.00003918      0.00000628      0.0
 <Sep08-2020> <13:35:47>     15      0.00003144      0.00000336      0.0
 <Sep08-2020> <13:35:50>     16      0.00001525      0.00000197      0.0
 <Sep08-2020> <13:35:53>     17      0.00000637      0.00000067      0.0
 <Sep08-2020> <13:35:54>  SCF converged
 <Sep08-2020> <13:35:55>     18      0.00000670      0.00000084      0.0
 <Sep08-2020> <13:35:57>  >>>> TOTEN
 <Sep08-2020> <13:35:58>  >>>> POPAN
 <Sep08-2020> <13:35:58>  >>>> DEBYE
 <Sep08-2020> <13:35:59>  >>>> ENGRAD
 <Sep08-2020> <13:36:09>  Geometry symmetry displacement    2 out of    4
  Coordinates in Geometry Cycle 9
    Atom         X           Y           Z   (Angstrom)
    1.W         4.115825    3.555077    6.855930
    2.W         6.507859    3.951494   10.191711
    3.W         4.073747    1.901205    9.707591
    4.W         3.351110    6.626722    8.097961
    5.W         7.337008    7.054366    9.043752
    6.W         4.704347    8.684502   10.174112
    7.O         5.078368    3.481706    8.814358
    8.O         7.072419    5.182590    8.771642
    9.O         3.331729    2.108367    7.908254
   10.O         4.466786    5.426029    7.019582
   11.O         2.261723    5.388305    8.700443
   12.O         7.723042    7.735395    7.482403
   13.O         4.384306    8.584218   11.898212
   14.O         6.650448    8.486499   10.183563
   15.O         6.371860    5.166251   11.452593
   16.O         5.413497    2.888315    5.895792
   17.O         4.593381   10.364905    9.672949
   18.O         5.162679    7.106456    8.906412
   19.O         3.023059    8.002557    9.474917
   20.O         2.749333    3.638211    5.753199
   21.O         8.029486    3.101019   10.376630
   22.O         2.597419    2.004515   10.653244
   23.O         5.357311    2.569032   11.005487
   24.O         8.877637    6.982898    9.887743
   25.O         2.578386    7.471028    6.769978
   26.O         4.571023    0.218547    9.614232
 <Sep08-2020> <13:36:09>  >>>> CORORT
 <Sep08-2020> <13:36:10>  >>>> CLSMAT
 <Sep08-2020> <13:36:10>  >>>> ORTHON
 <Sep08-2020> <13:36:10>  >>>> GENPT
 <Sep08-2020> <13:36:10>  Block Length= 128
 <Sep08-2020> <13:36:10>  >>>> PTBAS
 <Sep08-2020> <13:36:13>  combining surface points...
 <Sep08-2020> <13:36:13>  combining surface points...
 <Sep08-2020> <13:36:13>  combining surface points...
 <Sep08-2020> <13:36:13>  >>>> CYCLE
 <Sep08-2020> <13:36:18>              |Error|         MaxErr       Wt(A-DIIS)
 <Sep08-2020> <13:36:18>      1      0.08557094      0.01149899
 <Sep08-2020> <13:36:21>      2      0.23066026      0.02182645    100.0
 <Sep08-2020> <13:36:24>      3      0.08126307      0.00752782    100.0
 <Sep08-2020> <13:36:26>      4      0.13256756      0.01157155    100.0
 <Sep08-2020> <13:36:29>      5      0.16903058      0.01900591    100.0
 <Sep08-2020> <13:36:32>      6      0.04960936      0.00532231      4.4
 <Sep08-2020> <13:36:35>      7      0.03448043      0.00542170      4.4
 <Sep08-2020> <13:36:38>      8      0.01038181      0.00111355      0.1
 <Sep08-2020> <13:36:41>      9      0.00370803      0.00052001      0.0
 <Sep08-2020> <13:36:44>     10      0.00251875      0.00027502      0.0
 <Sep08-2020> <13:36:46>     11      0.00049388      0.00006642      0.0
 <Sep08-2020> <13:36:49>     12      0.00043259      0.00006802      0.0
 <Sep08-2020> <13:36:52>     13      0.00024145      0.00002706      0.0
 <Sep08-2020> <13:36:55>     14      0.00003878      0.00000624      0.0
 <Sep08-2020> <13:36:57>     15      0.00003084      0.00000331      0.0
 <Sep08-2020> <13:37:00>     16      0.00001540      0.00000197      0.0
 <Sep08-2020> <13:37:03>     17      0.00000619      0.00000066      0.0
 <Sep08-2020> <13:37:04>  SCF converged
 <Sep08-2020> <13:37:05>     18      0.00000645      0.00000080      0.0
 <Sep08-2020> <13:37:07>  >>>> TOTEN
 <Sep08-2020> <13:37:08>  >>>> POPAN
 <Sep08-2020> <13:37:08>  >>>> DEBYE
 <Sep08-2020> <13:37:08>  >>>> ENGRAD
 <Sep08-2020> <13:37:19>  Old frequency:    -12.31887, new:     13.50432
 <Sep08-2020> <13:37:19>  Geometry symmetry displacement    3 out of    4
  Coordinates in Geometry Cycle 9
    Atom         X           Y           Z   (Angstrom)
    1.W         4.115839    3.555052    6.855950
    2.W         6.508059    3.951512   10.191576
    3.W         4.073622    1.901545    9.707831
    4.W         3.351180    6.626766    8.097646
    5.W         7.336996    7.054388    9.043695
    6.W         4.704196    8.684103   10.174363
    7.O         5.078308    3.481924    8.814451
    8.O         7.072566    5.182607    8.771470
    9.O         3.331601    2.108569    7.908478
   10.O         4.466890    5.426013    7.019352
   11.O         2.261467    5.388390    8.699640
   12.O         7.722781    7.735601    7.482364
   13.O         4.384138    8.583281   11.898427
   14.O         6.650322    8.486295   10.183712
   15.O         6.372475    5.166275   11.452502
   16.O         5.413570    2.888065    5.896048
   17.O         4.593127   10.364652    9.673701
   18.O         5.162633    7.106264    8.906441
   19.O         3.022970    8.002313    9.474860
   20.O         2.749469    3.638049    5.753060
   21.O         8.029584    3.100786   10.376180
   22.O         2.597369    2.005229   10.653554
   23.O         5.357419    2.569251   11.005561
   24.O         8.877730    6.983052    9.887505
   25.O         2.578927    7.471445    6.769628
   26.O         4.570598    0.218786    9.614648
 <Sep08-2020> <13:37:19>  >>>> CORORT
 <Sep08-2020> <13:37:20>  >>>> CLSMAT
 <Sep08-2020> <13:37:20>  >>>> ORTHON
 <Sep08-2020> <13:37:20>  >>>> GENPT
 <Sep08-2020> <13:37:20>  Block Length= 128
 <Sep08-2020> <13:37:20>  >>>> PTBAS
 <Sep08-2020> <13:37:23>  combining surface points...
 <Sep08-2020> <13:37:23>  combining surface points...
 <Sep08-2020> <13:37:23>  combining surface points...
 <Sep08-2020> <13:37:23>  >>>> CYCLE
 <Sep08-2020> <13:37:27>              |Error|         MaxErr       Wt(A-DIIS)
 <Sep08-2020> <13:37:27>      1      0.08364153      0.00911960
 <Sep08-2020> <13:37:30>      2      0.23057456      0.02181879    100.0
 <Sep08-2020> <13:37:33>      3      0.08134852      0.00757041    100.0
 <Sep08-2020> <13:37:36>      4      0.13361869      0.01166442    100.0
 <Sep08-2020> <13:37:39>      5      0.16601909      0.01870744    100.0
 <Sep08-2020> <13:37:42>      6      0.05041381      0.00554285      4.6
 <Sep08-2020> <13:37:45>      7      0.03490379      0.00550677      4.6
 <Sep08-2020> <13:37:48>      8      0.01043614      0.00111632      0.1
 <Sep08-2020> <13:37:51>      9      0.00372116      0.00052429      0.0
 <Sep08-2020> <13:37:53>     10      0.00252217      0.00027581      0.0
 <Sep08-2020> <13:37:56>     11      0.00049401      0.00006682      0.0
 <Sep08-2020> <13:37:59>     12      0.00043289      0.00006820      0.0
 <Sep08-2020> <13:38:02>     13      0.00024060      0.00002695      0.0
 <Sep08-2020> <13:38:05>     14      0.00003882      0.00000624      0.0
 <Sep08-2020> <13:38:07>     15      0.00003112      0.00000333      0.0
 <Sep08-2020> <13:38:10>     16      0.00001520      0.00000194      0.0
 <Sep08-2020> <13:38:13>     17      0.00000628      0.00000066      0.0
 <Sep08-2020> <13:38:14>  SCF converged
 <Sep08-2020> <13:38:15>     18      0.00000665      0.00000083      0.0
 <Sep08-2020> <13:38:17>  >>>> TOTEN
 <Sep08-2020> <13:38:18>  >>>> POPAN
 <Sep08-2020> <13:38:18>  >>>> DEBYE
 <Sep08-2020> <13:38:18>  >>>> ENGRAD
 <Sep08-2020> <13:38:29>  Geometry symmetry displacement    4 out of    4
  Coordinates in Geometry Cycle 9
    Atom         X           Y           Z   (Angstrom)
    1.W         4.115806    3.555107    6.855772
    2.W         6.507653    3.951847   10.191727
    3.W         4.073644    1.901444    9.707547
    4.W         3.351206    6.626356    8.098125
    5.W         7.337179    7.054373    9.043676
    6.W         4.704420    8.684250   10.174185
    7.O         5.078584    3.481636    8.814096
    8.O         7.072541    5.182608    8.771484
    9.O         3.331769    2.108389    7.908143
   10.O         4.466942    5.426047    7.019363
   11.O         2.262419    5.387465    8.700758
   12.O         7.723406    7.735416    7.482383
   13.O         4.384633    8.583840   11.898327
   14.O         6.650540    8.486518   10.183435
   15.O         6.371315    5.167004   11.452204
   16.O         5.413342    2.888278    5.895500
   17.O         4.593058   10.364648    9.673113
   18.O         5.162863    7.106594    8.906032
   19.O         3.023127    8.001942    9.475302
   20.O         2.749222    3.638329    5.753164
   21.O         8.029252    3.101465   10.377288
   22.O         2.597198    2.004759   10.653020
   23.O         5.356919    2.569606   11.005577
   24.O         8.877727    6.982832    9.887809
   25.O         2.577844    7.470531    6.770431
   26.O         4.571054    0.218814    9.614492
 <Sep08-2020> <13:38:29>  >>>> CORORT
 <Sep08-2020> <13:38:30>  >>>> CLSMAT
 <Sep08-2020> <13:38:30>  >>>> ORTHON
 <Sep08-2020> <13:38:30>  >>>> GENPT
 <Sep08-2020> <13:38:30>  Block Length= 128
 <Sep08-2020> <13:38:30>  >>>> PTBAS
 <Sep08-2020> <13:38:33>  combining surface points...
 <Sep08-2020> <13:38:33>  combining surface points...
 <Sep08-2020> <13:38:33>  combining surface points...
 <Sep08-2020> <13:38:33>  >>>> CYCLE
 <Sep08-2020> <13:38:38>              |Error|         MaxErr       Wt(A-DIIS)
 <Sep08-2020> <13:38:38>      1      0.09376474      0.01925419
 <Sep08-2020> <13:38:41>      2      0.23046634      0.02180394    100.0
 <Sep08-2020> <13:38:44>      3      0.08123433      0.00753152    100.0
 <Sep08-2020> <13:38:46>      4      0.13279552      0.01160421    100.0
 <Sep08-2020> <13:38:49>      5      0.16761783      0.01888145    100.0
 <Sep08-2020> <13:38:52>      6      0.05005720      0.00546623      4.5
 <Sep08-2020> <13:38:55>      7      0.03481505      0.00548175      4.5
 <Sep08-2020> <13:38:58>      8      0.01042284      0.00111850      0.1
 <Sep08-2020> <13:39:01>      9      0.00373252      0.00052674      0.0
 <Sep08-2020> <13:39:04>     10      0.00252610      0.00027621      0.0
 <Sep08-2020> <13:39:06>     11      0.00049610      0.00006742      0.0
 <Sep08-2020> <13:39:09>     12      0.00043474      0.00006866      0.0
 <Sep08-2020> <13:39:12>     13      0.00023928      0.00002686      0.0
 <Sep08-2020> <13:39:15>     14      0.00003943      0.00000631      0.0
 <Sep08-2020> <13:39:17>     15      0.00003169      0.00000338      0.0
 <Sep08-2020> <13:39:20>     16      0.00001529      0.00000199      0.0
 <Sep08-2020> <13:39:23>     17      0.00000648      0.00000068      0.0
 <Sep08-2020> <13:39:24>  SCF converged
 <Sep08-2020> <13:39:25>     18      0.00000671      0.00000083      0.0
 <Sep08-2020> <13:39:27>  >>>> TOTEN
 <Sep08-2020> <13:39:28>  >>>> POPAN
 <Sep08-2020> <13:39:28>  >>>> DEBYE
 <Sep08-2020> <13:39:28>  >>>> ENGRAD
 <Sep08-2020> <13:39:39>  Old frequency:     -9.33646, new:     21.31742
 <Sep08-2020> <13:39:39>  NOTE: Some frequencies have been re-calculated by numerical differentiation
 <Sep08-2020> <13:39:39>        Check the text output file for new values!
 <Sep08-2020> <13:39:39>  NORMAL TERMINATION
 <Sep08-2020> <13:39:40>  END
