 *******************************************************************************
 *                                                                             *
 *  -------------------------------------                                      *
 *   Amsterdam Density Functional  (ADF)         2019                          *
 *  -------------------------------------                                      *
 *                                               r79301 2019-11-09             *
 *                                                                             *
 *                                                                             *
 *                            =====================                            *
 *                            |                   |                            *
 *                            |     D I R A C     |                            *
 *                            |                   |                            *
 *                            =====================                            *
 *                                                                             *
 *                                                                             *
 *   Online information and documentation:  https://www.scm.com/support/       *
 *   E-mail:  support@scm.com   info@scm.com                                   *
 *                                                                             *
 *   Scientific publications using ADF results must be properly referenced     *
 *   See the User Manuals (or the web site) for recommended citations          *
 *   The terms and conditions of the End User License Agreement apply to       *
 *   the use of ADF, https://www.scm.com/license-terms/                        *
 *                                                                             *
 **********************  x86_64_linux_intel / intelmpi  ************************
 
  
 DIRAC 2019  RunTime: Dec11-2023 10:47:47  Nodes: 1  Procs: 1

 Temporary files are created in /scratch/kid_0.2095678819 (0x58465342)

1
 TUNGSTEN ATOM 4d CORE RELATIVISTIC, Point Nuc, A and c from 
 N J RN H ZN XION ANUC CLIGHT
 5000   22100.00000000197.36710137 74.00000000  0.00000000  183.950932  0.1370360E+03
  PH   PHI     EPS        DEL        DELRVR
  0.30  0.30     2500.00  0.00001000  0.00001000
 IDIRC  NC1  NDEBU NPRIN  IPUN IRCOR IWCOR
   1   300     0     0     0     0    14
   XALPHA      XLATTER      RNUC
  0.70000000  0.00000000  0.00000000 Point Charge
   XN   XL   XJ      XE          XZ      XDELL
  1.0  0.0  0.5   -2600.000       2.000     0.00000
  2.0  0.0  0.5    -425.000       2.000     0.00000
  2.0  1.0  0.5    -425.000       2.000     0.00000
  2.0  1.0  1.5    -425.000       4.000     0.00000
  3.0  0.0  0.5    -100.000       2.000     0.00000
  3.0  1.0  0.5    -100.000       2.000     0.00000
  3.0  1.0  1.5    -100.000       4.000     0.00000
  3.0  2.0  1.5     -80.000       4.000     0.00000
  3.0  2.0  2.5     -80.000       6.000     0.00000
  4.0  0.0  0.5     -22.000       2.000     0.00000
  4.0  1.0  0.5     -20.000       2.000     0.00000
  4.0  1.0  1.5     -20.000       4.000     0.00000
  4.0  2.0  1.5     -11.000       4.000     0.00000
  4.0  2.0  2.5     -11.000       6.000     0.00000
  4.0  3.0  2.5      -1.000       6.000     0.00000
  4.0  3.0  3.5      -1.000       8.000     0.00000
  5.0  0.0  0.5      -3.000       2.000     0.00000
  5.0  1.0  0.5      -2.200       2.000     0.00000
  5.0  1.0  1.5      -2.200       4.000     0.00000
  5.0  2.0  1.5      -0.500       4.000     0.00000
  5.0  2.0  2.5      -0.500       0.000     0.00000
  6.0  0.0  0.5      -0.200       2.000     0.00000
 ICORP=  0  NPCL=  0  DEMP=0.00  PEPS=0.000000
 R(1)=  0.1000000E-08 D=  0.1005080E+01 RNUC=  0.0000000E+00
 converged at cycle   63  DENSITY AVERAGING    0.1536
  MAXIMUM ERROR IN R.V(R) IS   0.78838062E-05
 Q,EY,EV,EZ,ESUM,ETOT,RHO  0.740000E+02 -0.431420E+03 -0.281568E+05 -0.403919E+05 -0.993885E+04 -0.161643E+05  0.726391E-09


 DIRAC CALCULATION
1                    TUNGSTEN ATOM 4d CORE RELATIVISTIC, Point Nuc, A and c from libtc


 EXCHANGE COEFFICIENT=  0.7000000           TAIL CORRECTION=  0.           NUCLEAR RADIUS=  0.000E+00
0                       ORBITAL    N    L    J     ELECTRONS     EIGENVALUE                DELTA OF EIGENV.

                          1S1/2  1.0  0.0  0.5     2.000       -0.2549514E+04                 0.5980248E-04
                          2S1/2  2.0  0.0  0.5     2.000       -0.4399118E+03                 0.5052420E-04
                          2P1/2  2.0  1.0  0.5     2.000       -0.4208427E+03                 0.5265062E-04
                          2P3/2  2.0  1.0  1.5     4.000       -0.3711192E+03                 0.5139441E-04
                          3S1/2  3.0  0.0  0.5     2.000       -0.1012881E+03                 0.3437035E-04
                          3P1/2  3.0  1.0  0.5     2.000       -0.9277148E+02                 0.3553128E-04
                          3P3/2  3.0  1.0  1.5     4.000       -0.8201733E+02                 0.3404634E-04
                          3D3/2  3.0  2.0  1.5     4.000       -0.6762803E+02                 0.3680712E-04
                          3D5/2  3.0  2.0  2.5     6.000       -0.6528623E+02                 0.3629511E-04
                          4S1/2  4.0  0.0  0.5     2.000       -0.2084139E+02                 0.1939427E-04
                          4P1/2  4.0  1.0  0.5     2.000       -0.1730737E+02                 0.1933978E-04
                          4P3/2  4.0  1.0  1.5     4.000       -0.1480597E+02                 0.1810922E-04
                          4D3/2  4.0  2.0  1.5     4.000       -0.8989319E+01                 0.1779394E-04
                          4D5/2  4.0  2.0  2.5     6.000       -0.8528007E+01                 0.1741170E-04
                          4F5/2  4.0  3.0  2.5     6.000       -0.1237480E+01                 0.1544089E-04
                          4F7/2  4.0  3.0  3.5     8.000       -0.1154634E+01                 0.1522033E-04
                          5S1/2  5.0  0.0  0.5     2.000       -0.2863514E+01                 0.7979521E-05
                          5P1/2  5.0  1.0  0.5     2.000       -0.1813289E+01                 0.7246225E-05
                          5P3/2  5.0  1.0  1.5     4.000       -0.1448762E+01                 0.6602120E-05
                          5D3/2  5.0  2.0  1.5     4.000       -0.1486933E+00                 0.3973088E-05
                          5D5/2  5.0  2.0  2.5     0.000       -0.1223153E+00                 0.3735081E-05
                          6S1/2  6.0  0.0  0.5     2.000       -0.1847434E+00                 0.1808440E-05


                                        NUCLEAR CHARGE=   74.000000
                            INTEGRAL OF CHARGE DENSITY=   74.000000
                           SUM OF THE ORBITAL ENERGIES=  -9938.8529
                                          TOTAL ENERGY= -16164.2530
                                        KINETIC ENERGY=  18217.9700
                             NUCLEAR ATTRACTION ENERGY= -40391.9132
                             ELECTRON REPULSION ENERGY=   6333.2551
                                       EXCHANGE ENERGY=   -323.5649

 *******************************************************************************

                             D I R A C   E X I T
 NORMAL TERMINATION



 =================
 Timing Statistics
 =================
  
 Total Used :                     CPU=        0.86      System=        0.00     Elapsed=        0.87

 Calls  Section                     ( Mean, Percentage )
 ---------------------------------------------------------------------------------------------------
     2  ><      ................      0.00    0.00             0.00    0.00             0.00    0.00
     1  EXIT PROCEDURE .........      0.86  100.00             0.00    0.00             0.87  100.00


 Currently Open Files (EXIT00)
 ====================

 Unit    Access Format  Status   Type       Ident (file)
 -------------------------------------------------------
   3      SEQ    FORM   TRANSP  NORMAL      LOGFILE
                                          ( logfile )
 
Create W   file=TZP-W.4d
XC
  GGA PBE
End
relativistic ZORA
Corepotentials t12.rel
End

 *******************************************************************************
 *                                                                             *
 *  -------------------------------------                                      *
 *   Amsterdam Density Functional  (ADF)         2019                          *
 *  -------------------------------------                                      *
 *                                               r79301 2019-11-09             *
 *                                                                             *
 *                                                                             *
 *                              =================                              *
 *                              |               |                              *
 *                              |     A D F     |                              *
 *                              |               |                              *
 *                              =================                              *
 *                                                                             *
 *                                                                             *
 *   Online information and documentation:  https://www.scm.com/support/       *
 *   E-mail:  support@scm.com   info@scm.com                                   *
 *                                                                             *
 *   Scientific publications using ADF results must be properly referenced     *
 *   See the User Manuals (or the web site) for recommended citations          *
 *   The terms and conditions of the End User License Agreement apply to       *
 *   the use of ADF, https://www.scm.com/license-terms/                        *
 *                                                                             *
 **********************  x86_64_linux_intel / intelmpi  ************************
 
  
 ADF 2019  RunTime: Dec11-2023 10:47:49  Nodes: 1  Procs: 1

 Temporary files are created in /scratch/kid_0.1118104158 (0x58465342)

 Tungsten (TZP, 4d frozen)



 ===========================
 A T T A C H E D   F I L E S
 ===========================
  
 CREATE - Data File:    TZP-W.4d
                        Tungsten (TZP, 4d frozen)
 Core Potentials:
         file : t12.rel



 ===============================
 M O D E L   P A R A M E T E R S
 ===============================
  
 DENSITY FUNCTIONAL POTENTIAL (scf)
    LDA:                               PW92                                    == Not Default ==
    Gradient Corrections:              PBEc PBEx                               == Not Default ==

 SPIN  (restricted / unrestr.)
    Molecule:                          Restricted                               

 OTHER ASPECTS
    Relativistic Corrections:          scalar (ZORA,MAPA)                      == Not Default ==

    Nuclear Charge Density Model:      Point Charge Nuclei                      
    Core Treatment:                    Frozen Orbital(s)                        

    Hyperfine or Zeeman Interaction:   ---                                      



 =====================================
 S Y M M E T R Y ,   E L E C T R O N S
 =====================================
  
 Symmetry: ATOM

 Irreducible Representations, including subspecies
 -------------------------------------------------
 S
 P:x  P:y  P:z
 D:z2  D:x2-y2  D:xy  D:xz  D:yz
 F:z3  F:z  F:xyz  F:z2x  F:z2y  F:x  F:y


 Configuration of Valence Electrons
 ==================================

          Occupation Numbers
          -------------------------------------------------
 S        2*2
 P        6
 D        4
 F        14
          -------------------------------------------------

 Total:   28

 Net Charge: 0 (Nuclei minus Electrons)

 Preset values for MO occupations will be applied through SCF cycle no. 1000000
 Thereafter, the program will assign electrons to MOs that are spatially
 similar to the occupied MOs in a "reference" cycle ("KeepOrbitals").
 The reference cycle is always the PREVIOUS cycle: it will evolve with
 the SCF procedure.



 ================================
 (Slater-type)  F U N C T I O N S  ***  (Basis and Fit)  ***
 ================================
  

 Atom Type    1  (W)
 ==============

 Valence Basis Sets:  25
 -----------------------
   1 S   52.000000
   2 S   33.250000
   3 S   19.100000
   4 S   11.650000
   2 P   36.850000
   3 P   16.500000
   4 P   11.550000
   3 D   20.100000
   4 D   10.300000
   1 S  163.900000
   5 S    6.050000
   5 S    3.950000
   6 S    2.850000
   6 S    1.800000
   6 S    1.140000
   5 P    5.900000
   5 P    4.000000
   5 P    2.700000
   5 D    4.150000
   5 D    2.250000
   5 D    1.200000
   4 F   13.550000
   4 F    7.050000
   4 F    3.550000
   6 P    1.800000

 Frozen Core Shells
 ------------------
    S:  4
    P:  3
    D:  2


 BAS: List of all Elementary Cartesian Basis Functions
 =====================================================

 The numbering in the list below (to the right of the function characteristics) is referred
 to in print-outs of MO eigenvectors and Mulliken populations in the BAS representation
 (as contrasted to the SFO representation).

 Notes:
 1. The functions are characterized by a polynomial prefactor (powers of x,y,z and r) and
    an exponential decay factor alpha.
 2. Since the basis sets are specific for an atom TYPE, the individual functions occur on
    all atoms of that type.
 3. The word 'Core' in the left margin signals that it is a Core Function (CF) : not a
    degree of freedom in the valence set, but only used to ensure orthogonalization of
    the other valence basis functions on the frozen Core Orbitals.


 (power of) X  Y  Z  R     Alpha  on Atom
            ==========     =====     ==========

 W                                    1
                                  ---------------------------------------------------------------------------
    Core    0  0  0  0    52.000      1
    Core    0  0  0  1    33.250      2
    Core    0  0  0  2    19.100      3
    Core    0  0  0  3    11.650      4
    Core    1  0  0  0    36.850      5
    Core    0  1  0  0    36.850      6
    Core    0  0  1  0    36.850      7
    Core    1  0  0  1    16.500      8
    Core    0  1  0  1    16.500      9
    Core    0  0  1  1    16.500     10
    Core    1  0  0  2    11.550     11
    Core    0  1  0  2    11.550     12
    Core    0  0  1  2    11.550     13
    Core    2  0  0  0    20.100     14
    Core    1  1  0  0    20.100     15
    Core    1  0  1  0    20.100     16
    Core    0  2  0  0    20.100     17
    Core    0  1  1  0    20.100     18
    Core    0  0  2  0    20.100     19
    Core    2  0  0  1    10.300     20
    Core    1  1  0  1    10.300     21
    Core    1  0  1  1    10.300     22
    Core    0  2  0  1    10.300     23
    Core    0  1  1  1    10.300     24
    Core    0  0  2  1    10.300     25
            0  0  0  0   163.900     26
            0  0  0  4     6.050     27
            0  0  0  4     3.950     28
            0  0  0  5     2.850     29
            0  0  0  5     1.800     30
            0  0  0  5     1.140     31
            1  0  0  3     5.900     32
            0  1  0  3     5.900     33
            0  0  1  3     5.900     34
            1  0  0  3     4.000     35
            0  1  0  3     4.000     36
            0  0  1  3     4.000     37
            1  0  0  3     2.700     38
            0  1  0  3     2.700     39
            0  0  1  3     2.700     40
            2  0  0  2     4.150     41
            1  1  0  2     4.150     42
            1  0  1  2     4.150     43
            0  2  0  2     4.150     44
            0  1  1  2     4.150     45
            0  0  2  2     4.150     46
            2  0  0  2     2.250     47
            1  1  0  2     2.250     48
            1  0  1  2     2.250     49
            0  2  0  2     2.250     50
            0  1  1  2     2.250     51
            0  0  2  2     2.250     52
            2  0  0  2     1.200     53
            1  1  0  2     1.200     54
            1  0  1  2     1.200     55
            0  2  0  2     1.200     56
            0  1  1  2     1.200     57
            0  0  2  2     1.200     58
            3  0  0  0    13.550     59
            2  1  0  0    13.550     60
            2  0  1  0    13.550     61
            1  2  0  0    13.550     62
            1  1  1  0    13.550     63
            1  0  2  0    13.550     64
            0  3  0  0    13.550     65
            0  2  1  0    13.550     66
            0  1  2  0    13.550     67
            0  0  3  0    13.550     68
            3  0  0  0     7.050     69
            2  1  0  0     7.050     70
            2  0  1  0     7.050     71
            1  2  0  0     7.050     72
            1  1  1  0     7.050     73
            1  0  2  0     7.050     74
            0  3  0  0     7.050     75
            0  2  1  0     7.050     76
            0  1  2  0     7.050     77
            0  0  3  0     7.050     78
            3  0  0  0     3.550     79
            2  1  0  0     3.550     80
            2  0  1  0     3.550     81
            1  2  0  0     3.550     82
            1  1  1  0     3.550     83
            1  0  2  0     3.550     84
            0  3  0  0     3.550     85
            0  2  1  0     3.550     86
            0  1  2  0     3.550     87
            0  0  3  0     3.550     88
            1  0  0  4     1.800     89
            0  1  0  4     1.800     90
            0  0  1  4     1.800     91

 Total number of charge fitting functions (nprimf)       329
 Total number of Cartesian basis functions (naos)         91
 Total number of Cartesian core functions  (ncos)         25



 BAS: List of all Elementary Cartesian Basis Functions
 =====================================================

 The numbering in the list below (to the right of the function characteristics) is referred
 to in print-outs of MO eigenvectors and Mulliken populations in the BAS representation
 (as contrasted to the SFO representation).

 Notes:
 1. The functions are characterized by a polynomial prefactor (powers of x,y,z and r) and
    an exponential decay factor alpha.
 2. Since the basis sets are specific for an atom TYPE, the individual functions occur on
    all atoms of that type.
 3. The word 'Core' in the left margin signals that it is a Core Function (CF) : not a
    degree of freedom in the valence set, but only used to ensure orthogonalization of
    the other valence basis functions on the frozen Core Orbitals.


 (power of) X  Y  Z  R     Alpha  on Atom
            ==========     =====     ==========

 W                                    1
                                  ---------------------------------------------------------------------------
    Core    0  0  0  0    52.000      1
    Core    0  0  0  1    33.250      2
    Core    0  0  0  2    19.100      3
    Core    0  0  0  3    11.650      4
    Core    1  0  0  0    36.850      5
    Core    0  1  0  0    36.850      6
    Core    0  0  1  0    36.850      7
    Core    1  0  0  1    16.500      8
    Core    0  1  0  1    16.500      9
    Core    0  0  1  1    16.500     10
    Core    1  0  0  2    11.550     11
    Core    0  1  0  2    11.550     12
    Core    0  0  1  2    11.550     13
    Core    2  0  0  0    20.100     14
    Core    1  1  0  0    20.100     15
    Core    1  0  1  0    20.100     16
    Core    0  2  0  0    20.100     17
    Core    0  1  1  0    20.100     18
    Core    0  0  2  0    20.100     19
    Core    2  0  0  1    10.300     20
    Core    1  1  0  1    10.300     21
    Core    1  0  1  1    10.300     22
    Core    0  2  0  1    10.300     23
    Core    0  1  1  1    10.300     24
    Core    0  0  2  1    10.300     25
            0  0  0  0   163.900     26
            0  0  0  4     6.050     27
            0  0  0  4     3.950     28
            0  0  0  5     2.850     29
            0  0  0  5     1.800     30
            0  0  0  5     1.140     31
            1  0  0  3     5.900     32
            0  1  0  3     5.900     33
            0  0  1  3     5.900     34
            1  0  0  3     4.000     35
            0  1  0  3     4.000     36
            0  0  1  3     4.000     37
            1  0  0  3     2.700     38
            0  1  0  3     2.700     39
            0  0  1  3     2.700     40
            2  0  0  2     4.150     41
            1  1  0  2     4.150     42
            1  0  1  2     4.150     43
            0  2  0  2     4.150     44
            0  1  1  2     4.150     45
            0  0  2  2     4.150     46
            2  0  0  2     2.250     47
            1  1  0  2     2.250     48
            1  0  1  2     2.250     49
            0  2  0  2     2.250     50
            0  1  1  2     2.250     51
            0  0  2  2     2.250     52
            2  0  0  2     1.200     53
            1  1  0  2     1.200     54
            1  0  1  2     1.200     55
            0  2  0  2     1.200     56
            0  1  1  2     1.200     57
            0  0  2  2     1.200     58
            3  0  0  0    13.550     59
            2  1  0  0    13.550     60
            2  0  1  0    13.550     61
            1  2  0  0    13.550     62
            1  1  1  0    13.550     63
            1  0  2  0    13.550     64
            0  3  0  0    13.550     65
            0  2  1  0    13.550     66
            0  1  2  0    13.550     67
            0  0  3  0    13.550     68
            3  0  0  0     7.050     69
            2  1  0  0     7.050     70
            2  0  1  0     7.050     71
            1  2  0  0     7.050     72
            1  1  1  0     7.050     73
            1  0  2  0     7.050     74
            0  3  0  0     7.050     75
            0  2  1  0     7.050     76
            0  1  2  0     7.050     77
            0  0  3  0     7.050     78
            3  0  0  0     3.550     79
            2  1  0  0     3.550     80
            2  0  1  0     3.550     81
            1  2  0  0     3.550     82
            1  1  1  0     3.550     83
            1  0  2  0     3.550     84
            0  3  0  0     3.550     85
            0  2  1  0     3.550     86
            0  1  2  0     3.550     87
            0  0  3  0     3.550     88
            1  0  0  4     1.800     89
            0  1  0  4     1.800     90
            0  0  1  4     1.800     91
1
 ***************************************************************************************************



                                              ***********************
                                              *  T E C H N I C A L  *
                                              ***********************
  



 =============================================================
 P A R A L L E L I Z A T I O N  and  V E C T O R I Z A T I O N
 =============================================================
  
 Nr of parallel processes:                                1
 Maximum vector length in NumInt loops:                 128



 =====================
 S C F   U P D A T E S
 =====================
  
 Max. nr. of cycles:                               300
 Convergence criterion:                              0.0000000100
   secondary criterion:                              0.0000000100

 Mix parameter (when DIIS does not apply):           0.2000000000
 Special mix parameter for the first cycle:          1.0000000000
 Mixed ADIIS+SDIIS will be used                  
    Max number of expansion vectors:                10
    Pure ADIIS when Max([F,P]) is above              0.1000000000
    Pure SDIIS when Max([F,P]) is below              0.0010000000
 Automatic ElectronSmearing (in case of problematic SCF convergence) disabled



 =================
 P R E C I S I O N  ***  (General: NumInt, NeglectFunctionTails, ...)  ***
 =================
  

 NumInt:           Target precision:                12.0000000000
 -------           Initial precision:               10.0000000000
                   Min. precision (optimization):   10.0000000000

 Neglect Functions:          Basis functions:        0.1000000000E-13
 ------------------          Fit functions:          0.1000000000E-13



 ===========================
 L I N E A R   S C A L I N G
 ===========================
  

 Cut-off radii density fit:                        0.1000000000E-97
 Overlap cut-off criterion AO matrix elements:     0.1000000000E-97
 Cut-offs for Coulomb potential and fitted density:0.1000000000E-97
 Cut-off criterion for Coulomb multipole terms:    0.1000000000E-97
 Progressive Convergence parameter:                 0.000000000    
1
 ***************************************************************************************************



                                            ***************************
                                            *  C O M P U T A T I O N  *
                                            ***************************
  

 Number of elements of the density matrix on this node (used, total):      4186      4186



 ===========================================
 Numerical Integration : Fuzzy Cells (Becke)
 ===========================================
  
 Becke grid quality: VERYGOOD       
  
 Lebedev angular grid order:             min:  13 max:  41
 Nr. of radial points:                   min: 145 max: 145

 Total nr. of points:        145
 Nr. of blocks:                2
 Block length:                73
 Nr. of dummy points:          1


 Test of Precision of the Numerical Integration Grid
 ===================================================

 Integral of the Total Core Density:                  46.00000002324492
 Relative Error:                                       5.053E-10



 ========================
 Density Fitting (zlmFit)
 ========================
  
 ZlmFit Fit Quality: VERYGOOD       
  
 Max L-expansion:                        min:   0 max:   0
 Nr. of radial interpolation points:     min: 340 max: 340



 =====
 S C F  ***  ScaSCF  ***
 =====
  

 CYCLE    1
 SCF Error: norm([F,P])=      0.000000000000, max([F,P])=      0.000000000000
 orbitals (Q,E):
 ---------------
 S :1...6            ( 2.00   -28.2058)  ( 2.00   -16.4725)  ( 0.00   -10.3738)  ( 0.00    -6.6321)
                     ( 0.00    -4.0998)  ( 0.00  3013.3587)
 P :1...4            ( 6.00   -26.2502)  ( 0.00   -15.6809)  ( 0.00   -10.1451)  ( 0.00    -6.3840)
 D :1...3            ( 4.00   -20.3774)  ( 0.00   -10.3968)  ( 0.00    -5.4917)
 F :1...3            (14.00   -35.0607)  ( 0.00   -19.0417)  ( 0.00   -12.0152)

 CYCLE    2
  SDIIS (wt  0.000):  1.0000  0.0000
 A-DIIS (wt  1.000):  0.1993  0.8007
  DIIS coefficients:  0.1993  0.8007
 SCF Error: norm([F,P])=     40.907082825658, max([F,P])=      9.977402120499
 orbitals (Q,E):
 ---------------
 S :1...3            ( 2.00    -4.6780)  ( 2.00    -1.8638)  ( 0.00    -0.9989)
 P :1...2            ( 6.00    -3.4915)  ( 0.00    -1.5122)
 D :1...2            ( 4.00    -2.0619)  ( 0.00    -1.0071)
 F :1...2            (14.00    -1.8107)  ( 0.00     1.1317)

 CYCLE    3
  SDIIS (wt  0.000):  0.3180  0.6820
 A-DIIS (wt  1.000):  0.2378  0.7622
  DIIS coefficients:  0.2378  0.7622
 SCF Error: norm([F,P])=     22.137766809988, max([F,P])=      7.956550621467
 orbitals (Q,E):
 ---------------
 S :1...3            ( 2.00    -3.1832)  ( 2.00    -0.0954)  ( 0.00     0.0950)
 P :1...2            ( 6.00    -1.7164)  ( 0.00     0.0796)
 D :1...2            ( 4.00    -0.0523)  ( 0.00     0.2166)
 F :1...2            (14.00    -2.9552)  ( 0.00     2.1680)

 CYCLE    4
  SDIIS (wt  0.000): -0.1470  0.2408  0.9063
 A-DIIS (wt  1.000):  0.0000  0.1960  0.8040
  DIIS coefficients:  0.0000  0.1960  0.8040
 SCF Error: norm([F,P])=     11.319258211122, max([F,P])=      3.388378774288
 orbitals (Q,E):
 ---------------
 S :1...3            ( 2.00    -2.5382)  ( 2.00    -0.1744)  ( 0.00     0.0568)
 P :1...2            ( 6.00    -1.3109)  ( 0.00     0.0041)
 D :1...2            ( 4.00    -0.0593)  ( 0.00     0.1840)
 F :1...2            (14.00    -0.4483)  ( 0.00     2.6543)

 CYCLE    5
  SDIIS (wt  0.000): -0.0453 -0.0639  0.4150  0.6941
 A-DIIS (wt  1.000):  0.0000  0.0000  0.2956  0.7044
  DIIS coefficients:  0.0000  0.0000  0.2956  0.7044
 SCF Error: norm([F,P])=      6.468352795626, max([F,P])=      2.222974642389
 orbitals (Q,E):
 ---------------
 S :1...3            ( 2.00    -3.2723)  ( 2.00    -0.3187)  ( 0.00     0.0098)
 P :1...2            ( 6.00    -1.9237)  ( 0.00    -0.1006)
 D :1...2            ( 4.00    -0.3847)  ( 0.00     0.0899)
 F :1...2            (14.00    -1.8198)  ( 0.00     1.9560)

 CYCLE    6
  SDIIS (wt  0.000): -0.0085 -0.0399  0.0839  0.4322  0.5323
 A-DIIS (wt  1.000):  0.0000  0.0000  0.0000  0.2109  0.7891
  DIIS coefficients:  0.0000  0.0000  0.0000  0.2109  0.7891
 SCF Error: norm([F,P])=      2.472496419763, max([F,P])=      0.770355067313
 orbitals (Q,E):
 ---------------
 S :1...3            ( 2.00    -2.6997)  ( 2.00    -0.1670)  ( 0.00     0.0637)
 P :1...2            ( 6.00    -1.4226)  ( 0.00     0.0144)
 D :1...2            ( 4.00    -0.0756)  ( 0.00     0.1818)
 F :1...2            (14.00    -0.9561)  ( 0.00     2.4590)

 CYCLE    7
  SDIIS (wt  0.000): -0.0027  0.0194 -0.0224 -0.1264  0.3712  0.7611
 A-DIIS (wt  1.000):  0.0000  0.0000  0.0000  0.0000  0.2987  0.7013
  DIIS coefficients:  0.0000  0.0000  0.0000  0.0000  0.2987  0.7013
 SCF Error: norm([F,P])=      1.326888571519, max([F,P])=      0.409877416513
 orbitals (Q,E):
 ---------------
 S :1...3            ( 2.00    -2.9765)  ( 2.00    -0.2356)  ( 0.00     0.0368)
 P :1...2            ( 6.00    -1.6652)  ( 0.00    -0.0389)
 D :1...2            ( 4.00    -0.2166)  ( 0.00     0.1330)
 F :1...2            (14.00    -1.3505)  ( 0.00     2.2150)

 CYCLE    8
  SDIIS (wt  0.000): -0.0001 -0.0032  0.0101  0.0022 -0.1365  0.1637  0.9637
 A-DIIS (wt  1.000):  0.0000  0.0000  0.0000  0.0000  0.0000  0.1133  0.8867
  DIIS coefficients:  0.0000  0.0000  0.0000  0.0000  0.0000  0.1133  0.8867
 SCF Error: norm([F,P])=      0.417265552811, max([F,P])=      0.123103983384
 orbitals (Q,E):
 ---------------
 S :1...3            ( 2.00    -2.8269)  ( 2.00    -0.1934)  ( 0.00     0.0514)
 P :1...2            ( 6.00    -1.5319)  ( 0.00    -0.0062)
 D :1...2            ( 4.00    -0.1328)  ( 0.00     0.1598)
 F :1...2            (14.00    -1.1429)  ( 0.00     2.3483)

 CYCLE    9
  SDIIS (wt  0.000): -0.0000 -0.0005  0.0032 -0.0055 -0.0134 -0.0769  0.3889  0.7044
 A-DIIS (wt  1.000):  0.0000  0.0000  0.0000  0.0000  0.0000  0.0000  0.4605  0.5395
  DIIS coefficients:  0.0000  0.0000  0.0000  0.0000  0.0000  0.0000  0.4605  0.5395
 SCF Error: norm([F,P])=      0.436344656895, max([F,P])=      0.135977974745
 orbitals (Q,E):
 ---------------
 S :1...3            ( 2.00    -2.8921)  ( 2.00    -0.2089)  ( 0.00     0.0455)
 P :1...2            ( 6.00    -1.5884)  ( 0.00    -0.0182)
 D :1...2            ( 4.00    -0.1653)  ( 0.00     0.1491)
 F :1...2            (14.00    -1.2444)  ( 0.00     2.2903)

 CYCLE   10
  SDIIS (wt  0.791): -0.0000 -0.0000 -0.0008  0.0050  0.0002 -0.0572  0.0662  0.2518  0.7349
 A-DIIS (wt  0.209):  0.0000  0.0000  0.0000  0.0000  0.0000  0.0000  0.0000  0.0000  1.0000
  DIIS coefficients: -0.0000 -0.0000 -0.0006  0.0039  0.0002 -0.0453  0.0524  0.1992  0.7903
 SCF Error: norm([F,P])=      0.064290018174, max([F,P])=      0.021683563602
 orbitals (Q,E):
 ---------------
 S :1...3            ( 2.00    -2.8892)  ( 2.00    -0.2088)  ( 0.00     0.0453)
 P :1...2            ( 6.00    -1.5864)  ( 0.00    -0.0182)
 D :1...2            ( 4.00    -0.1648)  ( 0.00     0.1492)
 F :1...2            (14.00    -1.2344)  ( 0.00     2.2932)

 CYCLE   11
  SDIIS (wt  0.943):  0.0000  0.0000  0.0003 -0.0019 -0.0002  0.0169 -0.0071 -0.0713  1.0633
 A-DIIS (wt  0.057):  0.0000  0.0000  0.0000  0.0000  0.0000  0.0000  0.0000  0.0000  1.0000
  DIIS coefficients:  0.0000  0.0000  0.0003 -0.0018 -0.0002  0.0159 -0.0067 -0.0673  1.0597
 SCF Error: norm([F,P])=      0.019862243149, max([F,P])=      0.006614525832
 orbitals (Q,E):
 ---------------
 S :1...3            ( 2.00    -2.8906)  ( 2.00    -0.2091)  ( 0.00     0.0452)
 P :1...2            ( 6.00    -1.5875)  ( 0.00    -0.0184)
 D :1...2            ( 4.00    -0.1654)  ( 0.00     0.1490)
 F :1...2            (14.00    -1.2376)  ( 0.00     2.2919)

 CYCLE   12
  SDIIS (wt  1.000):  0.0000 -0.0000  0.0001  0.0002 -0.0010 -0.0025  0.0027  1.0005
  DIIS coefficients:  0.0000 -0.0000  0.0001  0.0002 -0.0010 -0.0025  0.0027  1.0005
 SCF Error: norm([F,P])=      0.001704368638, max([F,P])=      0.000557703294
 orbitals (Q,E):
 ---------------
 S :1...3            ( 2.00    -2.8904)  ( 2.00    -0.2090)  ( 0.00     0.0452)
 P :1...2            ( 6.00    -1.5874)  ( 0.00    -0.0184)
 D :1...2            ( 4.00    -0.1653)  ( 0.00     0.1490)
 F :1...2            (14.00    -1.2373)  ( 0.00     2.2920)

 CYCLE   13
  SDIIS (wt  1.000): -0.0000 -0.0000 -0.0000 -0.0001  0.0001 -0.0012  0.0054  0.1443  0.8513
  DIIS coefficients: -0.0000 -0.0000 -0.0000 -0.0001  0.0001 -0.0012  0.0054  0.1443  0.8513
 SCF Error: norm([F,P])=      0.000011644128, max([F,P])=      0.000003087302
 orbitals (Q,E):
 ---------------
 S :1...3            ( 2.00    -2.8904)  ( 2.00    -0.2090)  ( 0.00     0.0452)
 P :1...2            ( 6.00    -1.5874)  ( 0.00    -0.0184)
 D :1...2            ( 4.00    -0.1653)  ( 0.00     0.1490)
 F :1...2            (14.00    -1.2373)  ( 0.00     2.2920)

 CYCLE   14
  SDIIS (wt  1.000): -0.0000 -0.0001 -0.0006 -0.0016  1.0022
  DIIS coefficients: -0.0000 -0.0001 -0.0006 -0.0016  1.0022
 SCF Error: norm([F,P])=      0.000000013756, max([F,P])=      0.000000003650
 orbitals (Q,E):
 ---------------
 S :1...3            ( 2.00    -2.8904)  ( 2.00    -0.2090)  ( 0.00     0.0452)
 P :1...2            ( 6.00    -1.5874)  ( 0.00    -0.0184)
 D :1...2            ( 4.00    -0.1653)  ( 0.00     0.1490)
 F :1...2            (14.00    -1.2373)  ( 0.00     2.2920)

 SCF CONVERGED

 CYCLE   15
1
 ***************************************************************************************************



                                                *******************
                                                *  R E S U L T S  *
                                                *******************
  
 *** Using FIT density in Focky
  SDIIS (wt  1.000): -0.0000 -0.0000 -0.0330  1.0330
  DIIS coefficients: -0.0000 -0.0000 -0.0330  1.0330
 SCF Error: norm([F,P])=      0.000000001904, max([F,P])=      0.000000000603

 Scaled ZORA Orbital Energies, per Irrep and Spin:
 =================================================
                        Occup              E (au)              E (eV)       Diff (eV) with prev. cycle
                        -----      --------------------        ------       --------------------------
 S
               1        2.000     -0.28904146058127E+01       -78.652               1.69E-08
               2        2.000     -0.20903700188629E+00        -5.688               1.07E-08
               3        0.000      0.45235059600390E-01         1.231
               4        0.000      0.56065479131102E+00        15.256
               5        0.000      0.33274541694695E+01        90.545
               6        0.000      0.30455860934223E+04     82874.614
 P
               1        6.000     -0.15873724268739E+01       -43.195               1.66E-08
               2        0.000     -0.18381804002204E-01        -0.500
               3        0.000      0.75931517673518E+00        20.662
               4        0.000      0.46642512103918E+01       126.921
 D
               1        4.000     -0.16528259673378E+00        -4.498               1.44E-08
               2        0.000      0.14901440684398E+00         4.055
               3        0.000      0.12244232958062E+01        33.318
 F
               1       14.000     -0.12372769632872E+01       -33.668               2.06E-08
               2        0.000      0.22920435821192E+01        62.370
               3        0.000      0.17401159156906E+02       473.510


 Partially Occupied:
               1 D                -0.16528259673378E+00
  
 HOMO :        2 S                -0.20903700188629E+00
 LUMO :        2 P                -0.18381804002204E-01
  


 Orbital Energies, all Irreps
 ========================================

 Irrep        no.  (spin)   Occup              E (au)                E (eV)
 ---------------------------------------------------------------------------
 S             1             2.00       -0.28904146058127E+01       -78.6522
 P             1             6.00       -0.15873724268739E+01       -43.1946
 F             1            14.00       -0.12372769632872E+01       -33.6680
 S             2             2.00       -0.20903700188629E+00        -5.6882
 D             1             4.00       -0.16528259673378E+00        -4.4976
 P             2             0.00       -0.18381804002204E-01        -0.5002
 S             3             0.00        0.45235059600390E-01         1.2309
 D             2             0.00        0.14901440684398E+00         4.0549
 S             4             0.00        0.56065479131102E+00        15.2562
 P             3             0.00        0.75931517673518E+00        20.6620
 D             3             0.00        0.12244232958062E+01        33.3183
 F             2             0.00        0.22920435821192E+01        62.3697
 S             5             0.00        0.33274541694695E+01        90.5446
 P             4             0.00        0.46642512103918E+01       126.9207
 F             3             0.00        0.17401159156906E+02       473.5096
 S             6             0.00        0.30455860934223E+04     82874.6143


 Scaled ZORA Orbital Energies of the Core Orbitals:
 ==================================================

 (Note that the atoms are grouped by atomtype, see the labels, and may hence NOT be in input order)

 AtomType  Orbital  Atom                   E (au)                        E (eV)
 --------  -------  ----           --------------------        ----------------
 W           1S        1          -0.25482138824004E+04              -69340.428
             2S        1          -0.43960984780021E+03              -11962.393
             3S        1          -0.10127263228126E+03               -2755.769
             4S        1          -0.20907119428712E+02                -568.912
             2P        1          -0.38417169137868E+03              -10453.844
             3P        1          -0.84864891065853E+02               -2309.291
             4P        1          -0.15541477299623E+02                -422.905
             3D        1          -0.66165082684733E+02               -1800.444
             4D        1          -0.87737511763508E+01                -238.746



 =======================================
 M U L L I K E N   P O P U L A T I O N S
 =======================================
  
 The survey below gives for each atom:
 a) the total charge (Z minus electrons)
 b) the net spin polarization (nr of electrons spin-A minus spin-B)
 c) for each spin the atomic electron valence density (integrated) per L-value.

 Atom              Charge    Spin density          S         P         D         F
 ----              ------    ------------       ------    ------    ------    ------
 1 W              -0.0000                       4.0000    6.0000    4.0000   14.0000

 Populations of individual BAS functions
 ----------------------------------------
 1 W           -0.0024 -0.0016  0.0017  0.0821  0.0004  0.0004  0.0004 -0.0190 -0.0190 -0.0190
                0.1070  0.1070  0.1070  0.0007  0.0011  0.0011  0.0007  0.0011  0.0007  0.0102
                0.0153  0.0153  0.0102  0.0153  0.0102  0.0002  1.3184  0.6637  0.7095  1.0512
                0.1771  0.5899  0.5899  0.5899  1.2256  1.2256  1.2256  0.0879  0.0879  0.0879
                0.2040  0.3059  0.3059  0.2040  0.3059  0.2040  0.2699  0.4048  0.4048  0.2699
                0.4048  0.2699  0.0486  0.0728  0.0728  0.0486  0.0728  0.0486  0.2159  0.4319
                0.4319  0.4319  0.5399  0.4319  0.2159  0.4319  0.4319  0.2159  0.4698  0.9397
                0.9397  0.9397  1.1746  0.9397  0.4698  0.9397  0.9397  0.4698  0.1142  0.2284
                0.2284  0.2284  0.2855  0.2284  0.1142  0.2284  0.2284  0.1142  0.0081  0.0081
                0.0081

 Gross Charges per Atom (Z minus electrons)
 ==========================================
            -0.0000
 Net Total: -0.00000000



 =======================================================================
 Electrostatic potential at the Nuclei due to electrons and other nuclei
 =======================================================================
  
         Atom                  Potential
         ----                  ---------
     1)   W                 545.46052106
 
 
 ========================
 No memory problems found
 ========================
 
 Maximum number of active allocate calls:         487
 
 *******************************************************************************

                             A D F   E X I T
 NORMAL TERMINATION



 =================
 Timing Statistics
 =================
  
 Total Used :                     CPU=        1.32      System=        0.05     Elapsed=        2.15

 Calls  Section                     ( Mean, Percentage )
 ---------------------------------------------------------------------------------------------------
     3  ><      ................      0.00    0.30             0.00    0.00             0.00    0.21
     1  INIT    ................      0.06    4.53             0.02   46.15             0.72   33.35
     1  GEOMET  ................      0.02    1.21             0.00    7.69             0.05    2.24
     1  INPUTA  ................      0.00    0.00             0.00    0.00             0.01    0.26
     1  MAINSY  ................      0.02    1.81             0.00    0.00             0.10    4.51
     1  SYMFIT  ................      0.00    0.00             0.00    0.00             0.00    0.08
     1  CORORT  ................      0.00    0.30             0.00    0.00             0.00    0.08
     1  SYMORB  ................      0.00    0.00             0.00    0.00             0.00    0.05
     1  CLSMAT  ................      0.00    0.30             0.00    0.00             0.01    0.32
     1  ORTHON  ................      0.01    0.60             0.00    7.69             0.01    0.30
     1  GENPT   ................      0.03    2.11             0.00    0.00             0.03    1.42
     1  PTBAS   ................      0.01    0.60             0.00    0.00             0.01    0.32
    15  FOCKY   ................      0.07   78.55             0.00   30.77             0.07   49.91
    15  FOCKTR  ................      0.00    1.21             0.00    0.00             0.00    0.55
    15  SDIIS   ................      0.00    1.81             0.00    0.00             0.00    2.03
     1  COREPS  ................      0.06    4.83             0.00    7.69             0.07    3.16
     1  POPAN   ................      0.01    0.60             0.00    0.00             0.01    0.31
     1  DEBYE   ................      0.00    0.00             0.00    0.00             0.00    0.11
     1  EXIT PROCEDURE .........      0.02    1.21             0.00    0.00             0.02    0.79


 Currently Open Files (EXIT00)
 ====================

 Unit    Access Format  Status   Type       Ident (file)
 -------------------------------------------------------
   3      SEQ    FORM   TRANSP  NORMAL      LOGFILE
                                          ( logfile )

 ***************************************************************************************************
 (LOGFILE)
 <Dec11-2023> <10:47:47>  DIRAC 2019  RunTime: Dec11-2023 10:47:47  Nodes: 1  Procs: 1
 <Dec11-2023> <10:47:48>  NORMAL TERMINATION
 <Dec11-2023> <10:47:48>  END
 <Dec11-2023> <10:47:49>  ADF 2019  RunTime: Dec11-2023 10:47:49  Nodes: 1  Procs: 1
 <Dec11-2023> <10:47:50>  Tungsten (TZP, 4d frozen)
 <Dec11-2023> <10:47:50>  RunType   : CREATE
 <Dec11-2023> <10:47:50>  Net Charge: 0 (Nuclei minus Electrons)
 <Dec11-2023> <10:47:50>  Symmetry  : ATOM
  Coordinates
    Atom         X           Y           Z   (Angstrom)
    1.W         0.000000    0.000000    0.000000
 <Dec11-2023> <10:47:50>  >>>> CORORT
 <Dec11-2023> <10:47:50>  >>>> CLSMAT
 <Dec11-2023> <10:47:50>  >>>> ORTHON
 <Dec11-2023> <10:47:50>  >>>> GENPT
 <Dec11-2023> <10:47:50>  Block Length=  73
 <Dec11-2023> <10:47:50>  >>>> PTBAS
 <Dec11-2023> <10:47:50>  >>>> CYCLE
 <Dec11-2023> <10:47:50>              |Error|         MaxErr       Wt(A-DIIS)
 <Dec11-2023> <10:47:50>      1      0.00000000      0.00000000
 <Dec11-2023> <10:47:50>      2     40.90708283      9.97740212    100.0
 <Dec11-2023> <10:47:50>      3     22.13776681      7.95655062    100.0
 <Dec11-2023> <10:47:50>      4     11.31925821      3.38837877    100.0
 <Dec11-2023> <10:47:51>      5      6.46835280      2.22297464    100.0
 <Dec11-2023> <10:47:51>      6      2.47249642      0.77035507    100.0
 <Dec11-2023> <10:47:51>      7      1.32688857      0.40987742    100.0
 <Dec11-2023> <10:47:51>      8      0.41726555      0.12310398    100.0
 <Dec11-2023> <10:47:51>      9      0.43634466      0.13597797    100.0
 <Dec11-2023> <10:47:51>     10      0.06429002      0.02168356     20.9
 <Dec11-2023> <10:47:51>     11      0.01986224      0.00661453      5.7
 <Dec11-2023> <10:47:51>     12      0.00170437      0.00055770      0.0
 <Dec11-2023> <10:47:51>     13      0.00001164      0.00000309      0.0
 <Dec11-2023> <10:47:51>     14      0.00000001      0.00000000      0.0
 <Dec11-2023> <10:47:51>  SCF converged
 <Dec11-2023> <10:47:51>     15      0.00000000      0.00000000      0.0
 <Dec11-2023> <10:47:51>  >>>> POPAN
 <Dec11-2023> <10:47:51>  >>>> DEBYE
 <Dec11-2023> <10:47:51>  NORMAL TERMINATION
 <Dec11-2023> <10:47:51>  END

 *******************************************************************************
 *                                                                             *
 *  -------------------------------------                                      *
 *   Amsterdam Density Functional  (ADF)         2019                          *
 *  -------------------------------------                                      *
 *                                               r79301 2019-11-09             *
 *                                                                             *
 *                                                                             *
 *                            =====================                            *
 *                            |                   |                            *
 *                            |     D I R A C     |                            *
 *                            |                   |                            *
 *                            =====================                            *
 *                                                                             *
 *                                                                             *
 *   Online information and documentation:  https://www.scm.com/support/       *
 *   E-mail:  support@scm.com   info@scm.com                                   *
 *                                                                             *
 *   Scientific publications using ADF results must be properly referenced     *
 *   See the User Manuals (or the web site) for recommended citations          *
 *   The terms and conditions of the End User License Agreement apply to       *
 *   the use of ADF, https://www.scm.com/license-terms/                        *
 *                                                                             *
 **********************  x86_64_linux_intel / intelmpi  ************************
 
  
 DIRAC 2019  RunTime: Dec11-2023 10:47:51  Nodes: 1  Procs: 1

 Temporary files are created in /scratch/kid_0.1920864308 (0x58465342)

1
 OXYGEN ATOM 1s CORE RELATIVISTIC, Point Nuc, A and c from li
 N J RN H ZN XION ANUC CLIGHT
 5000    4100.00000000197.36710137  8.00000000  0.00000000   15.994914  0.1370360E+03
  PH   PHI     EPS        DEL        DELRVR
  0.30  0.30     2500.00  0.00001000  0.00001000
 IDIRC  NC1  NDEBU NPRIN  IPUN IRCOR IWCOR
   1   300     0     0     0     0     1
   XALPHA      XLATTER      RNUC
  0.70000000  0.00000000  0.00000000 Point Charge
   XN   XL   XJ      XE          XZ      XDELL
  1.0  0.0  0.5      -5.000       2.000     0.00000
  2.0  0.0  0.5      -1.000       2.000     0.00000
  2.0  1.0  0.5      -1.000       2.000     0.00000
  2.0  1.0  1.5      -1.000       2.000     0.00000
 ICORP=  0  NPCL=  0  DEMP=0.00  PEPS=0.000000
 R(1)=  0.1000000E-08 D=  0.1005080E+01 RNUC=  0.0000000E+00
 converged at cycle   28  DENSITY AVERAGING    0.2400
  MAXIMUM ERROR IN R.V(R) IS   0.81125670E-05
 Q,EY,EV,EZ,ESUM,ETOT,RHO  0.800000E+01 -0.101247E+02 -0.114961E+03 -0.177573E+03 -0.405053E+02 -0.743427E+02  0.414766E-14


 DIRAC CALCULATION
1                    OXYGEN ATOM 1s CORE RELATIVISTIC, Point Nuc, A and c from libtc


 EXCHANGE COEFFICIENT=  0.7000000           TAIL CORRECTION=  0.           NUCLEAR RADIUS=  0.000E+00
0                       ORBITAL    N    L    J     ELECTRONS     EIGENVALUE                DELTA OF EIGENV.

                          1S1/2  1.0  0.0  0.5     2.000       -0.1880014E+02                 0.7264358E-06
                          2S1/2  2.0  0.0  0.5     2.000       -0.8412236E+00                 0.5932752E-05
                          2P1/2  2.0  1.0  0.5     2.000       -0.3063203E+00                 0.5998471E-05
                          2P3/2  2.0  1.0  1.5     2.000       -0.3049609E+00                 0.5986971E-05


                                        NUCLEAR CHARGE=    8.000000
                            INTEGRAL OF CHARGE DENSITY=    8.000000
                           SUM OF THE ORBITAL ENERGIES=    -40.5053
                                          TOTAL ENERGY=    -74.3427
                                        KINETIC ENERGY=     74.4552
                             NUCLEAR ATTRACTION ENERGY=   -177.5730
                             ELECTRON REPULSION ENERGY=     36.3686
                                       EXCHANGE ENERGY=     -7.5935

 *******************************************************************************

                             D I R A C   E X I T
 NORMAL TERMINATION



 =================
 Timing Statistics
 =================
  
 Total Used :                     CPU=        0.13      System=        0.00     Elapsed=        0.14

 Calls  Section                     ( Mean, Percentage )
 ---------------------------------------------------------------------------------------------------
     2  ><      ................      0.00    0.00             0.00  100.00             0.00    0.00
     1  EXIT PROCEDURE .........      0.13  100.00             0.00    0.00             0.14  100.00


 Currently Open Files (EXIT00)
 ====================

 Unit    Access Format  Status   Type       Ident (file)
 -------------------------------------------------------
   3      SEQ    FORM   TRANSP  NORMAL      LOGFILE
                                          ( logfile )
 
Create O   file=TZP-O.1s
XC
  GGA PBE
End
relativistic ZORA
Corepotentials t12.rel
End

 *******************************************************************************
 *                                                                             *
 *  -------------------------------------                                      *
 *   Amsterdam Density Functional  (ADF)         2019                          *
 *  -------------------------------------                                      *
 *                                               r79301 2019-11-09             *
 *                                                                             *
 *                                                                             *
 *                              =================                              *
 *                              |               |                              *
 *                              |     A D F     |                              *
 *                              |               |                              *
 *                              =================                              *
 *                                                                             *
 *                                                                             *
 *   Online information and documentation:  https://www.scm.com/support/       *
 *   E-mail:  support@scm.com   info@scm.com                                   *
 *                                                                             *
 *   Scientific publications using ADF results must be properly referenced     *
 *   See the User Manuals (or the web site) for recommended citations          *
 *   The terms and conditions of the End User License Agreement apply to       *
 *   the use of ADF, https://www.scm.com/license-terms/                        *
 *                                                                             *
 **********************  x86_64_linux_intel / intelmpi  ************************
 
  
 ADF 2019  RunTime: Dec11-2023 10:47:52  Nodes: 1  Procs: 1

 Temporary files are created in /scratch/kid_0.1256092638 (0x58465342)

 Oxygen (TZP, 1s frozen)



 ===========================
 A T T A C H E D   F I L E S
 ===========================
  
 CREATE - Data File:    TZP-O.1s
                        Oxygen (TZP, 1s frozen)
 Core Potentials:
         file : t12.rel



 ===============================
 M O D E L   P A R A M E T E R S
 ===============================
  
 DENSITY FUNCTIONAL POTENTIAL (scf)
    LDA:                               PW92                                    == Not Default ==
    Gradient Corrections:              PBEc PBEx                               == Not Default ==

 SPIN  (restricted / unrestr.)
    Molecule:                          Restricted                               

 OTHER ASPECTS
    Relativistic Corrections:          scalar (ZORA,MAPA)                      == Not Default ==

    Nuclear Charge Density Model:      Point Charge Nuclei                      
    Core Treatment:                    Frozen Orbital(s)                        

    Hyperfine or Zeeman Interaction:   ---                                      



 =====================================
 S Y M M E T R Y ,   E L E C T R O N S
 =====================================
  
 Symmetry: ATOM

 Irreducible Representations, including subspecies
 -------------------------------------------------
 S
 P:x  P:y  P:z
 D:z2  D:x2-y2  D:xy  D:xz  D:yz
 F:z3  F:z  F:xyz  F:z2x  F:z2y  F:x  F:y


 Configuration of Valence Electrons
 ==================================

          Occupation Numbers
          -------------------------------------------------
 S        2
 P        4
 D        0
 F        0
          -------------------------------------------------

 Total:   6

 Net Charge: 0 (Nuclei minus Electrons)

 Preset values for MO occupations will be applied through SCF cycle no. 1000000
 Thereafter, the program will assign electrons to MOs that are spatially
 similar to the occupied MOs in a "reference" cycle ("KeepOrbitals").
 The reference cycle is always the PREVIOUS cycle: it will evolve with
 the SCF procedure.



 ================================
 (Slater-type)  F U N C T I O N S  ***  (Basis and Fit)  ***
 ================================
  

 Atom Type    1  (O)
 ==============

 Valence Basis Sets:   8
 -----------------------
   1 S    7.360000
   2 S    1.720000
   2 S    2.880000
   2 S    7.580000
   2 P    1.120000
   2 P    2.080000
   2 P    4.080000
   3 D    2.000000

 Frozen Core Shells
 ------------------
    S:  1


 BAS: List of all Elementary Cartesian Basis Functions
 =====================================================

 The numbering in the list below (to the right of the function characteristics) is referred
 to in print-outs of MO eigenvectors and Mulliken populations in the BAS representation
 (as contrasted to the SFO representation).

 Notes:
 1. The functions are characterized by a polynomial prefactor (powers of x,y,z and r) and
    an exponential decay factor alpha.
 2. Since the basis sets are specific for an atom TYPE, the individual functions occur on
    all atoms of that type.
 3. The word 'Core' in the left margin signals that it is a Core Function (CF) : not a
    degree of freedom in the valence set, but only used to ensure orthogonalization of
    the other valence basis functions on the frozen Core Orbitals.


 (power of) X  Y  Z  R     Alpha  on Atom
            ==========     =====     ==========

 O                                    1
                                  ---------------------------------------------------------------------------
    Core    0  0  0  0     7.360      1
            0  0  0  1     1.720      2
            0  0  0  1     2.880      3
            0  0  0  1     7.580      4
            1  0  0  0     1.120      5
            0  1  0  0     1.120      6
            0  0  1  0     1.120      7
            1  0  0  0     2.080      8
            0  1  0  0     2.080      9
            0  0  1  0     2.080     10
            1  0  0  0     4.080     11
            0  1  0  0     4.080     12
            0  0  1  0     4.080     13
            2  0  0  0     2.000     14
            1  1  0  0     2.000     15
            1  0  1  0     2.000     16
            0  2  0  0     2.000     17
            0  1  1  0     2.000     18
            0  0  2  0     2.000     19

 Total number of charge fitting functions (nprimf)        82
 Total number of Cartesian basis functions (naos)         19
 Total number of Cartesian core functions  (ncos)          1



 BAS: List of all Elementary Cartesian Basis Functions
 =====================================================

 The numbering in the list below (to the right of the function characteristics) is referred
 to in print-outs of MO eigenvectors and Mulliken populations in the BAS representation
 (as contrasted to the SFO representation).

 Notes:
 1. The functions are characterized by a polynomial prefactor (powers of x,y,z and r) and
    an exponential decay factor alpha.
 2. Since the basis sets are specific for an atom TYPE, the individual functions occur on
    all atoms of that type.
 3. The word 'Core' in the left margin signals that it is a Core Function (CF) : not a
    degree of freedom in the valence set, but only used to ensure orthogonalization of
    the other valence basis functions on the frozen Core Orbitals.


 (power of) X  Y  Z  R     Alpha  on Atom
            ==========     =====     ==========

 O                                    1
                                  ---------------------------------------------------------------------------
    Core    0  0  0  0     7.360      1
            0  0  0  1     1.720      2
            0  0  0  1     2.880      3
            0  0  0  1     7.580      4
            1  0  0  0     1.120      5
            0  1  0  0     1.120      6
            0  0  1  0     1.120      7
            1  0  0  0     2.080      8
            0  1  0  0     2.080      9
            0  0  1  0     2.080     10
            1  0  0  0     4.080     11
            0  1  0  0     4.080     12
            0  0  1  0     4.080     13
            2  0  0  0     2.000     14
            1  1  0  0     2.000     15
            1  0  1  0     2.000     16
            0  2  0  0     2.000     17
            0  1  1  0     2.000     18
            0  0  2  0     2.000     19
1
 ***************************************************************************************************



                                              ***********************
                                              *  T E C H N I C A L  *
                                              ***********************
  



 =============================================================
 P A R A L L E L I Z A T I O N  and  V E C T O R I Z A T I O N
 =============================================================
  
 Nr of parallel processes:                                1
 Maximum vector length in NumInt loops:                 128



 =====================
 S C F   U P D A T E S
 =====================
  
 Max. nr. of cycles:                               300
 Convergence criterion:                              0.0000000100
   secondary criterion:                              0.0000000100

 Mix parameter (when DIIS does not apply):           0.2000000000
 Special mix parameter for the first cycle:          1.0000000000
 Mixed ADIIS+SDIIS will be used                  
    Max number of expansion vectors:                10
    Pure ADIIS when Max([F,P]) is above              0.1000000000
    Pure SDIIS when Max([F,P]) is below              0.0010000000
 Automatic ElectronSmearing (in case of problematic SCF convergence) disabled



 =================
 P R E C I S I O N  ***  (General: NumInt, NeglectFunctionTails, ...)  ***
 =================
  

 NumInt:           Target precision:                12.0000000000
 -------           Initial precision:               10.0000000000
                   Min. precision (optimization):   10.0000000000

 Neglect Functions:          Basis functions:        0.1000000000E-13
 ------------------          Fit functions:          0.1000000000E-13



 ===========================
 L I N E A R   S C A L I N G
 ===========================
  

 Cut-off radii density fit:                        0.1000000000E-97
 Overlap cut-off criterion AO matrix elements:     0.1000000000E-97
 Cut-offs for Coulomb potential and fitted density:0.1000000000E-97
 Cut-off criterion for Coulomb multipole terms:    0.1000000000E-97
 Progressive Convergence parameter:                 0.000000000    
1
 ***************************************************************************************************



                                            ***************************
                                            *  C O M P U T A T I O N  *
                                            ***************************
  

 Number of elements of the density matrix on this node (used, total):       190       190



 ===========================================
 Numerical Integration : Fuzzy Cells (Becke)
 ===========================================
  
 Becke grid quality: VERYGOOD       
  
 Lebedev angular grid order:             min:  13 max:  41
 Nr. of radial points:                   min:  68 max:  68

 Total nr. of points:         68
 Nr. of blocks:                1
 Block length:                68
 Nr. of dummy points:          0


 Test of Precision of the Numerical Integration Grid
 ===================================================

 Integral of the Total Core Density:                   1.99999999865610
 Relative Error:                                      -6.720E-10



 ========================
 Density Fitting (zlmFit)
 ========================
  
 ZlmFit Fit Quality: VERYGOOD       
  
 Max L-expansion:                        min:   0 max:   0
 Nr. of radial interpolation points:     min: 140 max: 140



 =====
 S C F  ***  ScaSCF  ***
 =====
  

 CYCLE    1
 SCF Error: norm([F,P])=      0.000000000000, max([F,P])=      0.000000000000
 orbitals (Q,E):
 ---------------
 S :1...3            ( 2.00    -5.3654)  ( 0.00    -2.2073)  ( 0.00    23.6692)
 P :1...3            ( 4.00    -5.0045)  ( 0.00    -2.0150)  ( 0.00    -0.3846)
 D :1...1            ( 0.00    -2.0410)

 CYCLE    2
 SCF Error: norm([F,P])=      4.562993374873, max([F,P])=      2.528971113813
 orbitals (Q,E):
 ---------------
 S :1...2            ( 2.00    -0.1548)  ( 0.00     1.6948)
 P :1...2            ( 4.00     0.1773)  ( 0.00     0.9552)
 D :1...1            ( 0.00     1.4649)

 CYCLE    3
  SDIIS (wt  0.000):  0.3378  0.6622
 A-DIIS (wt  1.000):  0.4814  0.5186
  DIIS coefficients:  0.4814  0.5186
 SCF Error: norm([F,P])=      2.723155250500, max([F,P])=      1.798667049295
 orbitals (Q,E):
 ---------------
 S :1...2            ( 2.00    -1.1093)  ( 0.00     0.7549)
 P :1...2            ( 4.00    -0.5518)  ( 0.00     0.2590)
 D :1...1            ( 0.00     0.8910)

 CYCLE    4
  SDIIS (wt  0.000):  0.0919  0.9081
 A-DIIS (wt  1.000):  0.0000  1.0000
  DIIS coefficients:  0.0000  1.0000
 SCF Error: norm([F,P])=      0.289027138405, max([F,P])=      0.130648623511
 orbitals (Q,E):
 ---------------
 S :1...2            ( 2.00    -0.7707)  ( 0.00     0.9912)
 P :1...2            ( 4.00    -0.2284)  ( 0.00     0.4046)
 D :1...1            ( 0.00     1.1288)

 CYCLE    5
  SDIIS (wt  0.000):  0.0260  0.6740  0.3001
 A-DIIS (wt  1.000):  0.0000  0.5764  0.4236
  DIIS coefficients:  0.0000  0.5764  0.4236
 SCF Error: norm([F,P])=      0.416615089426, max([F,P])=      0.232643669786
 orbitals (Q,E):
 ---------------
 S :1...2            ( 2.00    -0.8764)  ( 0.00     0.9107)
 P :1...2            ( 4.00    -0.3280)  ( 0.00     0.3557)
 D :1...1            ( 0.00     1.0703)

 CYCLE    6
  SDIIS (wt  0.942):  0.0005  0.0237 -0.0203  0.9960
 A-DIIS (wt  0.058):  0.0000  0.0000  0.0000  1.0000
  DIIS coefficients:  0.0005  0.0224 -0.0191  0.9962
 SCF Error: norm([F,P])=      0.013723272809, max([F,P])=      0.006719036732
 orbitals (Q,E):
 ---------------
 S :1...2            ( 2.00    -0.8830)  ( 0.00     0.9058)
 P :1...2            ( 4.00    -0.3343)  ( 0.00     0.3521)
 D :1...1            ( 0.00     1.0657)

 CYCLE    7
  SDIIS (wt  1.000): -0.0000  0.0016  0.0023  0.0424  0.9537
  DIIS coefficients: -0.0000  0.0016  0.0023  0.0424  0.9537
 SCF Error: norm([F,P])=      0.001103645928, max([F,P])=      0.000634039171
 orbitals (Q,E):
 ---------------
 S :1...2            ( 2.00    -0.8827)  ( 0.00     0.9060)
 P :1...2            ( 4.00    -0.3340)  ( 0.00     0.3523)
 D :1...1            ( 0.00     1.0659)

 CYCLE    8
  SDIIS (wt  1.000): -0.0000 -0.0001  0.0000 -0.0032  0.0268  0.9765
  DIIS coefficients: -0.0000 -0.0001  0.0000 -0.0032  0.0268  0.9765
 SCF Error: norm([F,P])=      0.000035919805, max([F,P])=      0.000020263970
 orbitals (Q,E):
 ---------------
 S :1...2            ( 2.00    -0.8827)  ( 0.00     0.9060)
 P :1...2            ( 4.00    -0.3340)  ( 0.00     0.3522)
 D :1...1            ( 0.00     1.0659)

 CYCLE    9
  SDIIS (wt  1.000): -0.0000  0.0008  0.0188  0.9804
  DIIS coefficients: -0.0000  0.0008  0.0188  0.9804
 SCF Error: norm([F,P])=      0.000000326384, max([F,P])=      0.000000183924
 orbitals (Q,E):
 ---------------
 S :1...2            ( 2.00    -0.8827)  ( 0.00     0.9060)
 P :1...2            ( 4.00    -0.3340)  ( 0.00     0.3522)
 D :1...1            ( 0.00     1.0659)

 CYCLE   10
  SDIIS (wt  1.000):  0.0000  0.0003  0.9996
  DIIS coefficients:  0.0000  0.0003  0.9996
 SCF Error: norm([F,P])=      0.000000000559, max([F,P])=      0.000000000306
 orbitals (Q,E):
 ---------------
 S :1...2            ( 2.00    -0.8827)  ( 0.00     0.9060)
 P :1...2            ( 4.00    -0.3340)  ( 0.00     0.3522)
 D :1...1            ( 0.00     1.0659)

 SCF CONVERGED

 CYCLE   11
1
 ***************************************************************************************************



                                                *******************
                                                *  R E S U L T S  *
                                                *******************
  
 *** Using FIT density in Focky
  SDIIS (wt  1.000): -0.0000  0.0143  0.9857
  DIIS coefficients: -0.0000  0.0143  0.9857
 SCF Error: norm([F,P])=      0.000000000010, max([F,P])=      0.000000000006

 Scaled ZORA Orbital Energies, per Irrep and Spin:
 =================================================
                        Occup              E (au)              E (eV)       Diff (eV) with prev. cycle
                        -----      --------------------        ------       --------------------------
 S
               1        2.000     -0.88272313143209E+00       -24.020              -9.28E-11
               2        0.000      0.90601345014671E+00        24.654
               3        0.000      0.29578810816937E+02       804.880
 P
               1        4.000     -0.33400585272070E+00        -9.089              -8.94E-11
               2        0.000      0.35224911365993E+00         9.585
               3        0.000      0.38342927625315E+01       104.336
 D
               1        0.000      0.10658965783141E+01        29.005


 Partially Occupied:
               1 P                -0.33400585272070E+00
  
 HOMO :        1 S                -0.88272313143209E+00
 LUMO :        2 P                 0.35224911365993E+00
  


 Orbital Energies, all Irreps
 ========================================

 Irrep        no.  (spin)   Occup              E (au)                E (eV)
 ---------------------------------------------------------------------------
 S             1             2.00       -0.88272313143209E+00       -24.0201
 P             1             4.00       -0.33400585272070E+00        -9.0888
 P             2             0.00        0.35224911365993E+00         9.5852
 S             2             0.00        0.90601345014671E+00        24.6539
 D             1             0.00        0.10658965783141E+01        29.0045
 P             3             0.00        0.38342927625315E+01       104.3364
 S             3             0.00        0.29578810816937E+02       804.8804


 Scaled ZORA Orbital Energies of the Core Orbitals:
 ==================================================

 (Note that the atoms are grouped by atomtype, see the labels, and may hence NOT be in input order)

 AtomType  Orbital  Atom                   E (au)                        E (eV)
 --------  -------  ----           --------------------        ----------------
 O           1S        1          -0.18925919758629E+02                -515.000



 =======================================
 M U L L I K E N   P O P U L A T I O N S
 =======================================
  
 The survey below gives for each atom:
 a) the total charge (Z minus electrons)
 b) the net spin polarization (nr of electrons spin-A minus spin-B)
 c) for each spin the atomic electron valence density (integrated) per L-value.

 Atom              Charge    Spin density          S         P         D         F
 ----              ------    ------------       ------    ------    ------    ------
 1 O              -0.0000                       2.0000    4.0000    0.0000    0.0000

 Populations of individual BAS functions
 ----------------------------------------
 1 O            0.0005  0.9226  1.0966 -0.0196  0.3346  0.3346  0.3346  0.7512  0.7512  0.7512
                0.2476  0.2476  0.2476  0.0000  0.0000  0.0000  0.0000  0.0000  0.0000

 Gross Charges per Atom (Z minus electrons)
 ==========================================
            -0.0000
 Net Total: -0.00000000



 =======================================================================
 Electrostatic potential at the Nuclei due to electrons and other nuclei
 =======================================================================
  
         Atom                  Potential
         ----                  ---------
     1)   O                  22.20265662
 
 
 ========================
 No memory problems found
 ========================
 
 Maximum number of active allocate calls:         389
 
 *******************************************************************************

                             A D F   E X I T
 NORMAL TERMINATION



 =================
 Timing Statistics
 =================
  
 Total Used :                     CPU=        0.46      System=        0.03     Elapsed=        0.52

 Calls  Section                     ( Mean, Percentage )
 ---------------------------------------------------------------------------------------------------
     3  ><      ................      0.00    0.87             0.00    0.00             0.00    0.88
     1  INIT    ................      0.06   13.04             0.02   57.14             0.08   15.68
     1  GEOMET  ................      0.02    3.48             0.00   14.28             0.02    4.71
     1  INPUTA  ................      0.00    0.87             0.00    0.00             0.00    0.69
     1  MAINSY  ................      0.01    2.61             0.00    0.00             0.01    2.78
     1  SYMFIT  ................      0.00    0.00             0.00    0.00             0.00    0.32
     1  CORORT  ................      0.00    0.87             0.00    0.00             0.00    0.30
     1  SYMORB  ................      0.00    0.00             0.00    0.00             0.00    0.18
     1  CLSMAT  ................      0.00    0.87             0.00    0.00             0.01    1.14
     1  ORTHON  ................      0.00    0.87             0.00   14.29             0.01    1.11
     1  GENPT   ................      0.02    3.48             0.00    0.00             0.02    3.19
     1  PTBAS   ................      0.01    1.74             0.00    0.00             0.01    1.04
    11  FOCKY   ................      0.02   55.65             0.00   14.28             0.02   52.88
    11  FOCKTR  ................      0.00    2.61             0.00    0.00             0.00    1.27
    11  SDIIS   ................      0.00    5.22             0.00    0.00             0.00    6.14
     1  COREPS  ................      0.02    3.48             0.00    0.00             0.02    3.63
     1  POPAN   ................      0.00    0.87             0.00    0.00             0.01    1.06
     1  DEBYE   ................      0.00    0.87             0.00    0.00             0.00    0.38
     1  EXIT PROCEDURE .........      0.01    2.61             0.00    0.00             0.01    2.62


 Currently Open Files (EXIT00)
 ====================

 Unit    Access Format  Status   Type       Ident (file)
 -------------------------------------------------------
   3      SEQ    FORM   TRANSP  NORMAL      LOGFILE
                                          ( logfile )

 ***************************************************************************************************
 (LOGFILE)
 <Dec11-2023> <10:47:47>  DIRAC 2019  RunTime: Dec11-2023 10:47:47  Nodes: 1  Procs: 1
 <Dec11-2023> <10:47:48>  NORMAL TERMINATION
 <Dec11-2023> <10:47:48>  END
 <Dec11-2023> <10:47:49>  ADF 2019  RunTime: Dec11-2023 10:47:49  Nodes: 1  Procs: 1
 <Dec11-2023> <10:47:50>  Tungsten (TZP, 4d frozen)
 <Dec11-2023> <10:47:50>  RunType   : CREATE
 <Dec11-2023> <10:47:50>  Net Charge: 0 (Nuclei minus Electrons)
 <Dec11-2023> <10:47:50>  Symmetry  : ATOM
  Coordinates
    Atom         X           Y           Z   (Angstrom)
    1.W         0.000000    0.000000    0.000000
 <Dec11-2023> <10:47:50>  >>>> CORORT
 <Dec11-2023> <10:47:50>  >>>> CLSMAT
 <Dec11-2023> <10:47:50>  >>>> ORTHON
 <Dec11-2023> <10:47:50>  >>>> GENPT
 <Dec11-2023> <10:47:50>  Block Length=  73
 <Dec11-2023> <10:47:50>  >>>> PTBAS
 <Dec11-2023> <10:47:50>  >>>> CYCLE
 <Dec11-2023> <10:47:50>              |Error|         MaxErr       Wt(A-DIIS)
 <Dec11-2023> <10:47:50>      1      0.00000000      0.00000000
 <Dec11-2023> <10:47:50>      2     40.90708283      9.97740212    100.0
 <Dec11-2023> <10:47:50>      3     22.13776681      7.95655062    100.0
 <Dec11-2023> <10:47:50>      4     11.31925821      3.38837877    100.0
 <Dec11-2023> <10:47:51>      5      6.46835280      2.22297464    100.0
 <Dec11-2023> <10:47:51>      6      2.47249642      0.77035507    100.0
 <Dec11-2023> <10:47:51>      7      1.32688857      0.40987742    100.0
 <Dec11-2023> <10:47:51>      8      0.41726555      0.12310398    100.0
 <Dec11-2023> <10:47:51>      9      0.43634466      0.13597797    100.0
 <Dec11-2023> <10:47:51>     10      0.06429002      0.02168356     20.9
 <Dec11-2023> <10:47:51>     11      0.01986224      0.00661453      5.7
 <Dec11-2023> <10:47:51>     12      0.00170437      0.00055770      0.0
 <Dec11-2023> <10:47:51>     13      0.00001164      0.00000309      0.0
 <Dec11-2023> <10:47:51>     14      0.00000001      0.00000000      0.0
 <Dec11-2023> <10:47:51>  SCF converged
 <Dec11-2023> <10:47:51>     15      0.00000000      0.00000000      0.0
 <Dec11-2023> <10:47:51>  >>>> POPAN
 <Dec11-2023> <10:47:51>  >>>> DEBYE
 <Dec11-2023> <10:47:51>  NORMAL TERMINATION
 <Dec11-2023> <10:47:51>  END
 <Dec11-2023> <10:47:51>  DIRAC 2019  RunTime: Dec11-2023 10:47:51  Nodes: 1  Procs: 1
 <Dec11-2023> <10:47:51>  NORMAL TERMINATION
 <Dec11-2023> <10:47:51>  END
 <Dec11-2023> <10:47:52>  ADF 2019  RunTime: Dec11-2023 10:47:52  Nodes: 1  Procs: 1
 <Dec11-2023> <10:47:52>  Oxygen (TZP, 1s frozen)
 <Dec11-2023> <10:47:52>  RunType   : CREATE
 <Dec11-2023> <10:47:52>  Net Charge: 0 (Nuclei minus Electrons)
 <Dec11-2023> <10:47:52>  Symmetry  : ATOM
  Coordinates
    Atom         X           Y           Z   (Angstrom)
    1.O         0.000000    0.000000    0.000000
 <Dec11-2023> <10:47:52>  >>>> CORORT
 <Dec11-2023> <10:47:52>  >>>> CLSMAT
 <Dec11-2023> <10:47:52>  >>>> ORTHON
 <Dec11-2023> <10:47:52>  >>>> GENPT
 <Dec11-2023> <10:47:52>  Block Length=  68
 <Dec11-2023> <10:47:52>  >>>> PTBAS
 <Dec11-2023> <10:47:52>  >>>> CYCLE
 <Dec11-2023> <10:47:52>              |Error|         MaxErr       Wt(A-DIIS)
 <Dec11-2023> <10:47:52>      1      0.00000000      0.00000000
 <Dec11-2023> <10:47:52>      2      4.56299337      2.52897111
 <Dec11-2023> <10:47:52>      3      2.72315525      1.79866705    100.0
 <Dec11-2023> <10:47:52>      4      0.28902714      0.13064862    100.0
 <Dec11-2023> <10:47:52>      5      0.41661509      0.23264367    100.0
 <Dec11-2023> <10:47:52>      6      0.01372327      0.00671904      5.8
 <Dec11-2023> <10:47:52>      7      0.00110365      0.00063404      0.0
 <Dec11-2023> <10:47:52>      8      0.00003592      0.00002026      0.0
 <Dec11-2023> <10:47:52>      9      0.00000033      0.00000018      0.0
 <Dec11-2023> <10:47:52>     10      0.00000000      0.00000000      0.0
 <Dec11-2023> <10:47:52>  SCF converged
 <Dec11-2023> <10:47:52>     11      0.00000000      0.00000000      0.0
 <Dec11-2023> <10:47:52>  >>>> POPAN
 <Dec11-2023> <10:47:52>  >>>> DEBYE
 <Dec11-2023> <10:47:52>  NORMAL TERMINATION
 <Dec11-2023> <10:47:52>  END


 Parallel Execution: Process Information
 ==============================================================================
 Rank   Node Name                              NodeID   MyNodeRank  NodeMaster
    0   kimik2197                                 0          0          0
    1   kimik2197                                 0          1         -1
    2   kimik2197                                 0          2         -1
    3   kimik2197                                 0          3         -1
    4   kimik2197                                 0          4         -1
    5   kimik2197                                 0          5         -1
    6   kimik2197                                 0          6         -1
    7   kimik2197                                 0          7         -1
    8   kimik2197                                 0          8         -1
    9   kimik2197                                 0          9         -1
   10   kimik2197                                 0         10         -1
[...]
 <Dec11-2023> <10:47:51>      8      0.41726555      0.12310398    100.0
 <Dec11-2023> <10:47:51>      9      0.43634466      0.13597797    100.0
 <Dec11-2023> <10:47:51>     10      0.06429002      0.02168356     20.9
 <Dec11-2023> <10:47:51>     11      0.01986224      0.00661453      5.7
 <Dec11-2023> <10:47:51>     12      0.00170437      0.00055770      0.0
 <Dec11-2023> <10:47:51>     13      0.00001164      0.00000309      0.0
 <Dec11-2023> <10:47:51>     14      0.00000001      0.00000000      0.0
 <Dec11-2023> <10:47:51>  SCF converged
 <Dec11-2023> <10:47:51>     15      0.00000000      0.00000000      0.0
 <Dec11-2023> <10:47:51>  >>>> POPAN
 <Dec11-2023> <10:47:51>  >>>> DEBYE
 <Dec11-2023> <10:47:51>  NORMAL TERMINATION
 <Dec11-2023> <10:47:51>  END
 <Dec11-2023> <10:47:51>  DIRAC 2019  RunTime: Dec11-2023 10:47:51  Nodes: 1  Procs: 1
 <Dec11-2023> <10:47:51>  NORMAL TERMINATION
 <Dec11-2023> <10:47:51>  END
 <Dec11-2023> <10:47:52>  ADF 2019  RunTime: Dec11-2023 10:47:52  Nodes: 1  Procs: 1
 <Dec11-2023> <10:47:52>  Oxygen (TZP, 1s frozen)
 <Dec11-2023> <10:47:52>  RunType   : CREATE
 <Dec11-2023> <10:47:52>  Net Charge: 0 (Nuclei minus Electrons)
 <Dec11-2023> <10:47:52>  Symmetry  : ATOM
  Coordinates
    Atom         X           Y           Z   (Angstrom)
    1.O         0.000000    0.000000    0.000000
 <Dec11-2023> <10:47:52>  >>>> CORORT
 <Dec11-2023> <10:47:52>  >>>> CLSMAT
 <Dec11-2023> <10:47:52>  >>>> ORTHON
 <Dec11-2023> <10:47:52>  >>>> GENPT
 <Dec11-2023> <10:47:52>  Block Length=  68
 <Dec11-2023> <10:47:52>  >>>> PTBAS
 <Dec11-2023> <10:47:52>  >>>> CYCLE
 <Dec11-2023> <10:47:52>              |Error|         MaxErr       Wt(A-DIIS)
 <Dec11-2023> <10:47:52>      1      0.00000000      0.00000000
 <Dec11-2023> <10:47:52>      2      4.56299337      2.52897111
 <Dec11-2023> <10:47:52>      3      2.72315525      1.79866705    100.0
 <Dec11-2023> <10:47:52>      4      0.28902714      0.13064862    100.0
 <Dec11-2023> <10:47:52>      5      0.41661509      0.23264367    100.0
 <Dec11-2023> <10:47:52>      6      0.01372327      0.00671904      5.8
 <Dec11-2023> <10:47:52>      7      0.00110365      0.00063404      0.0
 <Dec11-2023> <10:47:52>      8      0.00003592      0.00002026      0.0
 <Dec11-2023> <10:47:52>      9      0.00000033      0.00000018      0.0
 <Dec11-2023> <10:47:52>     10      0.00000000      0.00000000      0.0
 <Dec11-2023> <10:47:52>  SCF converged
 <Dec11-2023> <10:47:52>     11      0.00000000      0.00000000      0.0
 <Dec11-2023> <10:47:52>  >>>> POPAN
 <Dec11-2023> <10:47:52>  >>>> DEBYE
 <Dec11-2023> <10:47:52>  NORMAL TERMINATION
 <Dec11-2023> <10:47:52>  END
 <Dec11-2023> <10:47:53>  ADF 2019  RunTime: Dec11-2023 10:47:53  Nodes: 1  Procs: 24
 <Dec11-2023> <10:47:53>  *** (NO TITLE) ***
 <Dec11-2023> <10:47:53>  RunType   : GEOMETRY OPTIMIZATION
 <Dec11-2023> <10:47:53>  Net Charge: -4 (Nuclei minus Electrons)
 <Dec11-2023> <10:47:53>  Spin polar: 0 (Spin_A minus Spin_B electrons)
 <Dec11-2023> <10:47:53>  Symmetry  : NOSYM
 <Dec11-2023> <10:47:53>  >>>> FRAGM
  Coordinates in Geometry Cycle 1
    Atom         X           Y           Z   (Angstrom)
    1.O         0.048394   -0.011855    0.028736
    2.O         1.696354   -2.743743   -2.492170
    3.W         1.971180   -0.080345    1.364187
    4.W         0.984982    1.632810   -1.310160
    5.W        -1.911608   -0.001962   -1.260911
    6.W        -0.878382    1.610093    1.444966
    7.W         0.938926   -1.692277   -1.339721
    8.O         2.365878    1.284646    0.002841
    9.O        -0.758484    1.343473   -2.108991
   10.O        -2.639768   -1.363325   -0.119680
   11.O         1.153832   -1.438613    2.443177
   12.O        -2.271163    1.308851    0.124319
   13.O         0.855287    1.247595    2.238484
   14.O         2.320172   -1.412596   -0.003696
   15.O        -0.808648   -1.353484   -2.114606
   16.O        -1.635703    0.214999    2.520108
   17.O         0.071240    2.644085    0.066183
   18.O         1.534168   -0.015420   -2.173166
   19.O         0.144332   -3.014776   -0.196591
   20.O        -1.450931    2.985809    2.331980
   21.O        -3.244083    0.186289   -2.354554
   22.O         1.688090    2.867951   -2.319093
   23.O         3.488231    0.056055    2.193281
   24.O        -1.537588   -2.788634    2.295195
   25.O        -4.974546   -2.858424    0.126603
   26.W        -2.432387   -1.107046    3.662706
   27.W        -2.474654   -4.432789    3.634097
   28.W        -0.606831   -4.410418    0.882712
   29.W         0.419776   -2.793317    3.588127
   30.W        -3.458119   -2.722248    0.957029
   31.O        -3.023489   -2.783414    4.497200
   32.O        -1.560728   -5.444534    2.258971
   33.O         0.781846   -4.107776    2.202740
   34.O        -0.682165   -1.442650    4.438088
   35.O        -3.809692   -1.388583    2.325802
   36.O        -2.343125   -4.050388    0.087194
   37.O        -0.732110   -4.141824    4.434292
   38.O        -3.855566   -4.084070    2.321657
   39.O         1.750313   -2.980842    4.684197
   40.O        -0.032614   -5.786185   -0.003232
   41.O        -3.179468   -5.666703    4.643389
   42.O        -3.190893   -0.055024    4.813860
 <Dec11-2023> <10:47:54>  >>>> CORORT
 <Dec11-2023> <10:47:54>  >>>> CLSMAT
 <Dec11-2023> <10:47:54>  >>>> ORTHON
 <Dec11-2023> <10:47:54>  >>>> GENPT
 <Dec11-2023> <10:47:55>  Block Length= 128
 <Dec11-2023> <10:47:55>  >>>> PTBAS
 <Dec11-2023> <10:48:08>  combining surface points...
 <Dec11-2023> <10:48:08>  combining surface points...
 <Dec11-2023> <10:48:08>  combining surface points...
 <Dec11-2023> <10:48:08>  >>>> CYCLE
 <Dec11-2023> <10:48:23>              |Error|         MaxErr       Wt(A-DIIS)
 <Dec11-2023> <10:48:23>      1    111.82003091      6.42101550
 <Dec11-2023> <10:48:37>      2      6.05928423      0.16154683    100.0
 <Dec11-2023> <10:48:50>      3     11.77246223      0.45794130    100.0
 <Dec11-2023> <10:49:05>      4      9.04383501      0.47195721    100.0
 <Dec11-2023> <10:49:18>      5      2.21517793      0.08865513     88.5
 <Dec11-2023> <10:49:31>      6      4.24602562      0.14377092    100.0
 <Dec11-2023> <10:49:45>      7      2.29190253      0.08147559     81.3
 <Dec11-2023> <10:49:58>      8      2.22715846      0.09288399     81.3
 <Dec11-2023> <10:50:11>      9      0.65190888      0.03024138     29.5
 <Dec11-2023> <10:50:24>     10      0.47335966      0.02096637     20.2
 <Dec11-2023> <10:50:37>     11      0.16310174      0.01014621      9.2
 <Dec11-2023> <10:50:50>     12      0.07231261      0.00390461      2.9
 <Dec11-2023> <10:51:03>     13      0.01650817      0.00062761      0.0
 <Dec11-2023> <10:51:16>     14      0.00629165      0.00031425      0.0
 <Dec11-2023> <10:51:29>     15      0.00385762      0.00026867      0.0
 <Dec11-2023> <10:51:42>     16      0.00183472      0.00017723      0.0
 <Dec11-2023> <10:51:55>     17      0.00058118      0.00002504      0.0
 <Dec11-2023> <10:52:08>     18      0.00038116      0.00001628      0.0
 <Dec11-2023> <10:52:22>     19      0.00006297      0.00000400      0.0
 <Dec11-2023> <10:52:34>     20      0.00004017      0.00000305      0.0
 <Dec11-2023> <10:52:47>     21      0.00006208      0.00000445      0.0
 <Dec11-2023> <10:53:00>     22      0.00001005      0.00000068      0.0
 <Dec11-2023> <10:53:13>     23      0.00000454      0.00000033      0.0
 <Dec11-2023> <10:53:19>  SCF converged
 <Dec11-2023> <10:53:26>     24      0.00000435      0.00000017      0.0
 <Dec11-2023> <10:53:33>  >>>> TOTEN
 <Dec11-2023> <10:53:47>  >>>> POPAN
 <Dec11-2023> <10:53:47>  >>>> DEBYE
 <Dec11-2023> <10:53:47>  >>>> ENGRAD
 <Dec11-2023> <10:54:31>  current energy                              -13.86667708 Hartree
 <Dec11-2023> <10:54:31>  energy change                     -13.86667708     0.00100000    F
 <Dec11-2023> <10:54:31>  constrained gradient max            0.00070196     0.00100000    T
 <Dec11-2023> <10:54:31>  constrained gradient rms            0.00017272     0.00066667    T
 <Dec11-2023> <10:54:31>  gradient max                        0.00070196
 <Dec11-2023> <10:54:31>  gradient rms                        0.00017272
 <Dec11-2023> <10:54:31>  cart. step max                      0.00046372     0.01000000    T
 <Dec11-2023> <10:54:31>  cart. step rms                      0.00013187     0.00666667    T
  Coordinates in Geometry Cycle 2
    Atom         X           Y           Z   (Angstrom)
    1.O         0.048340   -0.011927    0.028849
    2.O         1.696338   -2.743674   -2.492164
    3.W         1.971107   -0.080283    1.364271
    4.W         0.984999    1.632793   -1.310140
    5.W        -1.911461   -0.002110   -1.261013
    6.W        -0.878426    1.609971    1.444853
    7.W         0.938876   -1.692255   -1.339684
    8.O         2.365849    1.284595    0.002844
    9.O        -0.758445    1.343339   -2.109187
   10.O        -2.639821   -1.363379   -0.119697
   11.O         1.153368   -1.438180    2.443395
   12.O        -2.270966    1.308680    0.124199
   13.O         0.855336    1.247696    2.238333
   14.O         2.320046   -1.412634   -0.003587
   15.O        -0.808568   -1.353561   -2.114699
   16.O        -1.635313    0.214800    2.520152
   17.O         0.071293    2.644028    0.066207
   18.O         1.534232   -0.015373   -2.173029
   19.O         0.144158   -3.014560   -0.196508
   20.O        -1.450966    2.985650    2.331970
   21.O        -3.244012    0.185981   -2.354601
   22.O         1.688334    2.867917   -2.318931
   23.O         3.488171    0.056102    2.193380
   24.O        -1.537501   -2.788478    2.295152
   25.O        -4.974669   -2.858584    0.126826
   26.W        -2.432331   -1.107078    3.662676
   27.W        -2.474609   -4.432778    3.634089
   28.W        -0.607012   -4.410205    0.882670
   29.W         0.419740   -2.793385    3.588064
   30.W        -3.458206   -2.722173    0.957133
   31.O        -3.023517   -2.783478    4.497199
   32.O        -1.560735   -5.444493    2.258969
   33.O         0.781749   -4.107610    2.202622
   34.O        -0.682304   -1.442869    4.438217
   35.O        -3.809697   -1.388351    2.325748
   36.O        -2.343223   -4.050298    0.087249
   37.O        -0.731940   -4.141817    4.434278
   38.O        -3.855501   -4.083991    2.321770
   39.O         1.750498   -2.980815    4.683924
   40.O        -0.032794   -5.785896   -0.003421
   41.O        -3.179312   -5.666813    4.643293
   42.O        -3.190848   -0.055114    4.813882
 <Dec11-2023> <10:54:32>  >>>> CORORT
 <Dec11-2023> <10:54:32>  >>>> CLSMAT
 <Dec11-2023> <10:54:32>  >>>> ORTHON
 <Dec11-2023> <10:54:32>  >>>> GENPT
 <Dec11-2023> <10:54:33>  Block Length= 128
 <Dec11-2023> <10:54:33>  >>>> PTBAS
 <Dec11-2023> <10:54:47>  combining surface points...
 <Dec11-2023> <10:54:47>  combining surface points...
 <Dec11-2023> <10:54:47>  combining surface points...
 <Dec11-2023> <10:54:47>  >>>> CYCLE
 <Dec11-2023> <10:55:02>              |Error|         MaxErr       Wt(A-DIIS)
 <Dec11-2023> <10:55:02>      1      0.06373460      0.00218939
 <Dec11-2023> <10:55:16>      2      0.22697979      0.00948545    100.0
 <Dec11-2023> <10:55:29>      3      0.06302739      0.00245669    100.0
 <Dec11-2023> <10:55:42>      4      0.11032902      0.00419956    100.0
 <Dec11-2023> <10:55:56>      5      0.25952141      0.01055495    100.0
 <Dec11-2023> <10:56:09>      6      0.11769542      0.00459450    100.0
 <Dec11-2023> <10:56:22>      7      0.12104641      0.01070833    100.0
 <Dec11-2023> <10:56:35>      8      0.04604822      0.00166431      0.7
 <Dec11-2023> <10:56:48>      9      0.00519884      0.00017551      0.0
 <Dec11-2023> <10:57:01>     10      0.00244482      0.00020039      0.0
 <Dec11-2023> <10:57:14>     11      0.00086642      0.00005216      0.0
 <Dec11-2023> <10:57:27>     12      0.00028661      0.00001139      0.0
 <Dec11-2023> <10:57:40>     13      0.00013921      0.00000761      0.0
 <Dec11-2023> <10:57:53>     14      0.00011014      0.00000361      0.0
 <Dec11-2023> <10:58:06>     15      0.00002850      0.00000139      0.0
 <Dec11-2023> <10:58:19>     16      0.00001137      0.00000055      0.0
 <Dec11-2023> <10:58:32>     17      0.00000966      0.00000052      0.0
 <Dec11-2023> <10:58:38>  SCF converged
 <Dec11-2023> <10:58:45>     18      0.00000680      0.00000029      0.0
 <Dec11-2023> <10:58:51>  >>>> TOTEN
 <Dec11-2023> <10:59:06>  >>>> POPAN
 <Dec11-2023> <10:59:06>  >>>> DEBYE
 <Dec11-2023> <10:59:06>  >>>> ENGRAD
 <Dec11-2023> <10:59:50>  current energy                              -13.86667843 Hartree
 <Dec11-2023> <10:59:50>  energy change                      -0.00000135     0.00100000    T
 <Dec11-2023> <10:59:50>  constrained gradient max            0.00060940     0.00100000    T
 <Dec11-2023> <10:59:50>  constrained gradient rms            0.00014358     0.00066667    T
 <Dec11-2023> <10:59:50>  gradient max                        0.00060940
 <Dec11-2023> <10:59:50>  gradient rms                        0.00014358
 <Dec11-2023> <10:59:50>  cart. step max                      0.00197310     0.01000000    T
 <Dec11-2023> <10:59:50>  cart. step rms                      0.00055215     0.00666667    T
 <Dec11-2023> <10:59:50>  GEOMETRY CONVERGED
 <Dec11-2023> <10:59:50>  Calculating Energy Terms for Final Geometry
  Coordinates in Geometry Cycle 2
    Atom         X           Y           Z   (Angstrom)
    1.O         0.048340   -0.011927    0.028849
    2.O         1.696338   -2.743674   -2.492164
    3.W         1.971107   -0.080283    1.364271
    4.W         0.984999    1.632793   -1.310140
    5.W        -1.911461   -0.002110   -1.261013
    6.W        -0.878426    1.609971    1.444853
    7.W         0.938876   -1.692255   -1.339684
    8.O         2.365849    1.284595    0.002844
    9.O        -0.758445    1.343339   -2.109187
   10.O        -2.639821   -1.363379   -0.119697
   11.O         1.153368   -1.438180    2.443395
   12.O        -2.270966    1.308680    0.124199
   13.O         0.855336    1.247696    2.238333
   14.O         2.320046   -1.412634   -0.003587
   15.O        -0.808568   -1.353561   -2.114699
   16.O        -1.635313    0.214800    2.520152
   17.O         0.071293    2.644028    0.066207
   18.O         1.534232   -0.015373   -2.173029
   19.O         0.144158   -3.014560   -0.196508
   20.O        -1.450966    2.985650    2.331970
   21.O        -3.244012    0.185981   -2.354601
   22.O         1.688334    2.867917   -2.318931
   23.O         3.488171    0.056102    2.193380
   24.O        -1.537501   -2.788478    2.295152
   25.O        -4.974669   -2.858584    0.126826
   26.W        -2.432331   -1.107078    3.662676
   27.W        -2.474609   -4.432778    3.634089
   28.W        -0.607012   -4.410205    0.882670
   29.W         0.419740   -2.793385    3.588064
   30.W        -3.458206   -2.722173    0.957133
   31.O        -3.023517   -2.783478    4.497199
   32.O        -1.560735   -5.444493    2.258969
   33.O         0.781749   -4.107610    2.202622
   34.O        -0.682304   -1.442869    4.438217
   35.O        -3.809697   -1.388351    2.325748
   36.O        -2.343223   -4.050298    0.087249
   37.O        -0.731940   -4.141817    4.434278
   38.O        -3.855501   -4.083991    2.321770
   39.O         1.750498   -2.980815    4.683924
   40.O        -0.032794   -5.785896   -0.003421
   41.O        -3.179312   -5.666813    4.643293
   42.O        -3.190848   -0.055114    4.813882
 <Dec11-2023> <10:59:50>  >>>> CORORT
 <Dec11-2023> <10:59:51>  >>>> CLSMAT
 <Dec11-2023> <10:59:51>  >>>> ORTHON
 <Dec11-2023> <10:59:51>  >>>> GENPT
 <Dec11-2023> <10:59:52>  Block Length= 128
 <Dec11-2023> <10:59:52>  >>>> PTBAS
 <Dec11-2023> <11:00:06>  combining surface points...
 <Dec11-2023> <11:00:06>  combining surface points...
 <Dec11-2023> <11:00:06>  combining surface points...
 <Dec11-2023> <11:00:06>  >>>> CYCLE
 <Dec11-2023> <11:00:21>              |Error|         MaxErr       Wt(A-DIIS)
 <Dec11-2023> <11:00:21>      1      0.05812318      0.00253521
 <Dec11-2023> <11:00:35>      2      0.22649903      0.01105672    100.0
 <Dec11-2023> <11:00:48>      3      0.06324106      0.00288096    100.0
 <Dec11-2023> <11:01:01>      4      0.11793301      0.00591867    100.0
 <Dec11-2023> <11:01:14>      5      0.23444357      0.01094684    100.0
 <Dec11-2023> <11:01:27>      6      0.12336933      0.00559941    100.0
 <Dec11-2023> <11:01:41>      7      0.08735245      0.00735277    100.0
 <Dec11-2023> <11:01:54>      8      0.06943639      0.00467382      3.7
 <Dec11-2023> <11:02:07>      9      0.00576483      0.00016322      0.0
 <Dec11-2023> <11:02:20>     10      0.00243552      0.00018092      0.0
 <Dec11-2023> <11:02:33>     11      0.00090924      0.00005074      0.0
 <Dec11-2023> <11:02:46>     12      0.00032916      0.00001094      0.0
 <Dec11-2023> <11:02:59>     13      0.00012209      0.00000757      0.0
 <Dec11-2023> <11:03:11>     14      0.00010241      0.00000524      0.0
 <Dec11-2023> <11:03:24>     15      0.00004392      0.00000266      0.0
 <Dec11-2023> <11:03:37>     16      0.00001237      0.00000052      0.0
 <Dec11-2023> <11:03:50>     17      0.00001295      0.00000078      0.0
 <Dec11-2023> <11:04:03>     18      0.00000823      0.00000030      0.0
 <Dec11-2023> <11:04:09>  SCF converged
 <Dec11-2023> <11:04:16>     19      0.00000223      0.00000012      0.0
 <Dec11-2023> <11:04:26>  >>>> TOTEN
 <Dec11-2023> <11:05:29>  QTAIM: determining topology...
 <Dec11-2023> <11:06:15>  >>>> POPAN
 <Dec11-2023> <11:06:15>  >>>> DEBYE
 <Dec11-2023> <11:06:16>  >>>> AMETS
 <Dec11-2023> <11:06:16>  >>>> POPUL
 <Dec11-2023> <11:06:17>   Bond Energy         -13.86667843 a.u.
 <Dec11-2023> <11:06:17>   Bond Energy        -377.33151877 eV
 <Dec11-2023> <11:06:17>   Bond Energy       -8701.47       kcal/mol
 <Dec11-2023> <11:06:17>  >>>> ENHESS
 <Dec11-2023> <11:08:20>  === NUCLEUS:     1
 <Dec11-2023> <11:23:36>  === NUCLEUS:     2
 <Dec11-2023> <11:37:50>  === NUCLEUS:     3
 <Dec11-2023> <11:52:22>  === NUCLEUS:     4
 <Dec11-2023> <12:06:53>  === NUCLEUS:     5
 <Dec11-2023> <12:21:27>  === NUCLEUS:     6
 <Dec11-2023> <12:36:00>  === NUCLEUS:     7
 <Dec11-2023> <12:50:13>  === NUCLEUS:     8
 <Dec11-2023> <13:04:45>  === NUCLEUS:     9
 <Dec11-2023> <13:19:16>  === NUCLEUS:    10
 <Dec11-2023> <13:33:46>  === NUCLEUS:    11
 <Dec11-2023> <13:48:16>  === NUCLEUS:    12
 <Dec11-2023> <14:02:46>  === NUCLEUS:    13
 <Dec11-2023> <14:17:14>  === NUCLEUS:    14
 <Dec11-2023> <14:31:45>  === NUCLEUS:    15
 <Dec11-2023> <14:45:38>  === NUCLEUS:    16
 <Dec11-2023> <14:59:48>  === NUCLEUS:    17
 <Dec11-2023> <15:14:17>  === NUCLEUS:    18
 <Dec11-2023> <15:28:08>  === NUCLEUS:    19
 <Dec11-2023> <15:42:38>  === NUCLEUS:    20
 <Dec11-2023> <15:56:29>  === NUCLEUS:    21
 <Dec11-2023> <16:10:58>  === NUCLEUS:    22
 <Dec11-2023> <16:25:27>  === NUCLEUS:    23
 <Dec11-2023> <16:39:38>  === NUCLEUS:    24
 <Dec11-2023> <16:54:07>  === NUCLEUS:    25
 <Dec11-2023> <17:08:37>  === NUCLEUS:    26
 <Dec11-2023> <17:23:07>  === NUCLEUS:    27
 <Dec11-2023> <17:37:37>  === NUCLEUS:    28
 <Dec11-2023> <17:52:06>  === NUCLEUS:    29
 <Dec11-2023> <18:06:17>  === NUCLEUS:    30
 <Dec11-2023> <18:20:10>  === NUCLEUS:    31
 <Dec11-2023> <18:34:20>  === NUCLEUS:    32
 <Dec11-2023> <18:48:31>  === NUCLEUS:    33
 <Dec11-2023> <19:03:24>  === NUCLEUS:    34
 <Dec11-2023> <19:19:31>  === NUCLEUS:    35
 <Dec11-2023> <19:34:43>  === NUCLEUS:    36
 <Dec11-2023> <19:49:35>  === NUCLEUS:    37
 <Dec11-2023> <20:04:46>  === NUCLEUS:    38
 <Dec11-2023> <20:19:57>  === NUCLEUS:    39
 <Dec11-2023> <20:36:05>  === NUCLEUS:    40
 <Dec11-2023> <20:50:57>  === NUCLEUS:    41
 <Dec11-2023> <21:06:08>  === NUCLEUS:    42
 <Dec11-2023> <21:21:00>  >>>> CALC_HESS_PMAT
 <Dec11-2023> <21:25:37>  >>>> CALC_HESS_WMAT
 <Dec11-2023> <21:26:10>  NORMAL TERMINATION
 <Dec11-2023> <21:26:10>  END
