
 *******************************************************************************
 *                                                                             *
 *  -------------------------------------                                      *
 *   Amsterdam Density Functional  (ADF)         2019                          *
 *  -------------------------------------                                      *
 *                                               r79301 2019-11-09             *
 *                                                                             *
 *                                                                             *
 *                            =====================                            *
 *                            |                   |                            *
 *                            |     D I R A C     |                            *
 *                            |                   |                            *
 *                            =====================                            *
 *                                                                             *
 *                                                                             *
 *   Online information and documentation:  https://www.scm.com/support/       *
 *   E-mail:  support@scm.com   info@scm.com                                   *
 *                                                                             *
 *   Scientific publications using ADF results must be properly referenced     *
 *   See the User Manuals (or the web site) for recommended citations          *
 *   The terms and conditions of the End User License Agreement apply to       *
 *   the use of ADF, https://www.scm.com/license-terms/                        *
 *                                                                             *
 **********************  x86_64_linux_intel / intelmpi  ************************
 
 
 
  
 DIRAC 2019  RunTime: Oct09-2020 12:51:31  Nodes: 1  Procs: 1

 Temporary files are created in /scratch/kid_0.93139763 (0x58465342)

1
 HYDROGEN ATOM RELATIVISTIC, Point Nuc, A and c from libtc   
 N J RN H ZN XION ANUC CLIGHT
 5000    1100.00000000197.36710137  1.00000000  0.00000000    1.007825  0.1370360E+03
  PH   PHI     EPS        DEL        DELRVR
  0.30  0.30     2500.00  0.00001000  0.00001000
 IDIRC  NC1  NDEBU NPRIN  IPUN IRCOR IWCOR
   1   300     0     0     0     0     0
   XALPHA      XLATTER      RNUC
  0.70000000  0.00000000  0.00000000 Point Charge
   XN   XL   XJ      XE          XZ      XDELL
  1.0  0.0  0.5      -1.000       1.000     0.00000
 ICORP=  0  NPCL=  0  DEMP=0.00  PEPS=0.000000
 R(1)=  0.1000000E-08 D=  0.1005080E+01 RNUC=  0.0000000E+00
 converged at cycle   32  DENSITY AVERAGING    0.2400
  MAXIMUM ERROR IN R.V(R) IS   0.79874357E-05
 Q,EY,EV,EZ,ESUM,ETOT,RHO  0.100000E+01 -0.266614E+00 -0.619969E+00 -0.910779E+00 -0.203940E+00 -0.415998E+00  0.337036E-17


 DIRAC CALCULATION
1                    HYDROGEN ATOM RELATIVISTIC, Point Nuc, A and c from libtc


 EXCHANGE COEFFICIENT=  0.7000000           TAIL CORRECTION=  0.           NUCLEAR RADIUS=  0.000E+00
0                       ORBITAL    N    L    J     ELECTRONS     EIGENVALUE                DELTA OF EIGENV.

                          1S1/2  1.0  0.0  0.5     1.000       -0.2039397E+00                 0.2720093E-06


                                        NUCLEAR CHARGE=    1.000000
                            INTEGRAL OF CHARGE DENSITY=    1.000000
                           SUM OF THE ORBITAL ENERGIES=     -0.2039
                                          TOTAL ENERGY=     -0.4160
                                        KINETIC ENERGY=      0.4160
                             NUCLEAR ATTRACTION ENERGY=     -0.9108
                             ELECTRON REPULSION ENERGY=      0.2787
                                       EXCHANGE ENERGY=     -0.2000

 *******************************************************************************

                             D I R A C   E X I T
 NORMAL TERMINATION



 =================
 Timing Statistics
 =================
  
 Total Used :                     CPU=        0.06      System=        0.01     Elapsed=        0.07

 Calls  Section                     ( Mean, Percentage )
 ---------------------------------------------------------------------------------------------------
     2  ><      ................      0.00    0.00             0.00    0.00             0.00    0.01
     1  EXIT PROCEDURE .........      0.06  100.00             0.01  100.00             0.07   99.99


 Currently Open Files (EXIT00)
 ====================

 Unit    Access Format  Status   Type       Ident (file)
 -------------------------------------------------------
   3      SEQ    FORM   TRANSP  NORMAL      LOGFILE
                                          ( logfile )
 
Create H   file=TZP-H
XC
  GGA PBE
End
relativistic ZORA
Corepotentials t12.rel
End

 *******************************************************************************
 *                                                                             *
 *  -------------------------------------                                      *
 *   Amsterdam Density Functional  (ADF)         2019                          *
 *  -------------------------------------                                      *
 *                                               r79301 2019-11-09             *
 *                                                                             *
 *                                                                             *
 *                              =================                              *
 *                              |               |                              *
 *                              |     A D F     |                              *
 *                              |               |                              *
 *                              =================                              *
 *                                                                             *
 *                                                                             *
 *   Online information and documentation:  https://www.scm.com/support/       *
 *   E-mail:  support@scm.com   info@scm.com                                   *
 *                                                                             *
 *   Scientific publications using ADF results must be properly referenced     *
 *   See the User Manuals (or the web site) for recommended citations          *
 *   The terms and conditions of the End User License Agreement apply to       *
 *   the use of ADF, https://www.scm.com/license-terms/                        *
 *                                                                             *
 **********************  x86_64_linux_intel / intelmpi  ************************
 
 
 
  
 ADF 2019  RunTime: Oct09-2020 12:51:31  Nodes: 1  Procs: 1

 Temporary files are created in /scratch/kid_0.1303222155 (0x58465342)

 Hydrogen (TZP)



 ===========================
 A T T A C H E D   F I L E S
 ===========================
  
 CREATE - Data File:    TZP-H
                        Hydrogen (TZP)
 Core Potentials:
         file : t12.rel



 ===============================
 M O D E L   P A R A M E T E R S
 ===============================
  
 DENSITY FUNCTIONAL POTENTIAL (scf)
    LDA:                               PW92                                    == Not Default ==
    Gradient Corrections:              PBEc PBEx                               == Not Default ==

 SPIN  (restricted / unrestr.)
    Molecule:                          Restricted                               

 OTHER ASPECTS
    Relativistic Corrections:          scalar (ZORA,MAPA)                      == Not Default ==

    Nuclear Charge Density Model:      Point Charge Nuclei                      
    Core Treatment:                    Frozen Orbital(s)                        

    Hyperfine or Zeeman Interaction:   ---                                      



 =====================================
 S Y M M E T R Y ,   E L E C T R O N S
 =====================================
  
 Symmetry: ATOM

 Irreducible Representations, including subspecies
 -------------------------------------------------
 S
 P:x  P:y  P:z
 D:z2  D:x2-y2  D:xy  D:xz  D:yz
 F:z3  F:z  F:xyz  F:z2x  F:z2y  F:x  F:y


 Configuration of Valence Electrons
 ==================================

          Occupation Numbers
          -------------------------------------------------
 S        1
 P        0
 D        0
 F        0
          -------------------------------------------------

 Total:   1

 Net Charge: 0 (Nuclei minus Electrons)

 Preset values for MO occupations will be applied through SCF cycle no. 1000000
 Thereafter, the program will assign electrons to MOs that are spatially
 similar to the occupied MOs in a "reference" cycle ("KeepOrbitals").
 The reference cycle is always the PREVIOUS cycle: it will evolve with
 the SCF procedure.



 ================================
 (Slater-type)  F U N C T I O N S  ***  (Basis and Fit)  ***
 ================================
  

 Atom Type    1  (H)
 ==============

 Valence Basis Sets:   4
 -----------------------
   1 S    0.690000
   1 S    0.920000
   1 S    1.580000
   2 P    1.250000


 BAS: List of all Elementary Cartesian Basis Functions
 =====================================================

 The numbering in the list below (to the right of the function characteristics) is referred
 to in print-outs of MO eigenvectors and Mulliken populations in the BAS representation
 (as contrasted to the SFO representation).

 Notes:
 1. The functions are characterized by a polynomial prefactor (powers of x,y,z and r) and
    an exponential decay factor alpha.
 2. Since the basis sets are specific for an atom TYPE, the individual functions occur on
    all atoms of that type.
 3. The word 'Core' in the left margin signals that it is a Core Function (CF) : not a
    degree of freedom in the valence set, but only used to ensure orthogonalization of
    the other valence basis functions on the frozen Core Orbitals.


 (power of) X  Y  Z  R     Alpha  on Atom
            ==========     =====     ==========

 H                                    1
                                  ---------------------------------------------------------------------------
            0  0  0  0     0.690      1
            0  0  0  0     0.920      2
            0  0  0  0     1.580      3
            1  0  0  0     1.250      4
            0  1  0  0     1.250      5
            0  0  1  0     1.250      6

 Total number of charge fitting functions (nprimf)        50
 Total number of Cartesian basis functions (naos)          6
 Total number of Cartesian core functions  (ncos)          0



 BAS: List of all Elementary Cartesian Basis Functions
 =====================================================

 The numbering in the list below (to the right of the function characteristics) is referred
 to in print-outs of MO eigenvectors and Mulliken populations in the BAS representation
 (as contrasted to the SFO representation).

 Notes:
 1. The functions are characterized by a polynomial prefactor (powers of x,y,z and r) and
    an exponential decay factor alpha.
 2. Since the basis sets are specific for an atom TYPE, the individual functions occur on
    all atoms of that type.
 3. The word 'Core' in the left margin signals that it is a Core Function (CF) : not a
    degree of freedom in the valence set, but only used to ensure orthogonalization of
    the other valence basis functions on the frozen Core Orbitals.


 (power of) X  Y  Z  R     Alpha  on Atom
            ==========     =====     ==========

 H                                    1
                                  ---------------------------------------------------------------------------
            0  0  0  0     0.690      1
            0  0  0  0     0.920      2
            0  0  0  0     1.580      3
            1  0  0  0     1.250      4
            0  1  0  0     1.250      5
            0  0  1  0     1.250      6
1
 ***************************************************************************************************



                                              ***********************
                                              *  T E C H N I C A L  *
                                              ***********************
  



 =============================================================
 P A R A L L E L I Z A T I O N  and  V E C T O R I Z A T I O N
 =============================================================
  
 Nr of parallel processes:                                1
 Maximum vector length in NumInt loops:                 128



 =====================
 S C F   U P D A T E S
 =====================
  
 Max. nr. of cycles:                               300
 Convergence criterion:                              0.0000000100
   secondary criterion:                              0.0000000100

 Mix parameter (when DIIS does not apply):           0.2000000000
 Special mix parameter for the first cycle:          1.0000000000
 Mixed ADIIS+SDIIS will be used                  
    Max number of expansion vectors:                10
    Pure ADIIS when Max([F,P]) is above              0.1000000000
    Pure SDIIS when Max([F,P]) is below              0.0010000000
 Automatic ElectronSmearing (in case of problematic SCF convergence) disabled



 =================
 P R E C I S I O N  ***  (General: NumInt, NeglectFunctionTails, ...)  ***
 =================
  

 NumInt:           Target precision:                12.0000000000
 -------           Initial precision:               10.0000000000
                   Min. precision (optimization):   10.0000000000

 Neglect Functions:          Basis functions:        0.1000000000E-13
 ------------------          Fit functions:          0.1000000000E-13



 ===========================
 L I N E A R   S C A L I N G
 ===========================
  

 Cut-off radii density fit:                        0.1000000000E-97
 Overlap cut-off criterion AO matrix elements:     0.1000000000E-97
 Cut-offs for Coulomb potential and fitted density:0.1000000000E-97
 Cut-off criterion for Coulomb multipole terms:    0.1000000000E-97
 Progressive Convergence parameter:                 0.000000000    
1
 ***************************************************************************************************



                                            ***************************
                                            *  C O M P U T A T I O N  *
                                            ***************************
  

 Number of elements of the density matrix on this node (used, total):        21        21



 ===========================================
 Numerical Integration : Fuzzy Cells (Becke)
 ===========================================
  
 Becke grid quality: VERYGOOD       
  
 Lebedev angular grid order:             min:  13 max:  41
 Nr. of radial points:                   min:  64 max:  64

 Total nr. of points:         64
 Nr. of blocks:                1
 Block length:                64
 Nr. of dummy points:          0


 Test of Precision of the Numerical Integration Grid
 ===================================================

 Integral of the Total Core Density:                   0.00000000000000



 ========================
 Density Fitting (zlmFit)
 ========================
  
 ZlmFit Fit Quality: VERYGOOD       
  
 Max L-expansion:                        min:   0 max:   0
 Nr. of radial interpolation points:     min: 120 max: 120



 =====
 S C F  ***  ScaSCF  ***
 =====
  

 CYCLE    1
 SCF Error: norm([F,P])=      0.000000000000, max([F,P])=      0.000000000000
 orbitals (Q,E):
 ---------------
 S :1...3            ( 1.00    -0.5000)  ( 0.00    -0.0900)  ( 0.00     1.2936)
 P :1...1            ( 0.00     0.1562)

 CYCLE    2
 SCF Error: norm([F,P])=      0.031537872292, max([F,P])=      0.030110494752
 orbitals (Q,E):
 ---------------
 S :1...2            ( 1.00    -0.2218)  ( 0.00     0.1019)
 P :1...1            ( 0.00     0.4189)

 CYCLE    3
  SDIIS (wt  0.000):  0.1996  0.8004
 A-DIIS (wt  1.000):  0.0000  1.0000
  DIIS coefficients:  0.0000  1.0000
 SCF Error: norm([F,P])=      0.008617989401, max([F,P])=      0.008343029399
 orbitals (Q,E):
 ---------------
 S :1...2            ( 1.00    -0.2422)  ( 0.00     0.0889)
 P :1...1            ( 0.00     0.4024)

 CYCLE    4
  SDIIS (wt  0.993):  0.1666  0.8334
 A-DIIS (wt  0.007):  0.0000  1.0000
  DIIS coefficients:  0.1654  0.8346
 SCF Error: norm([F,P])=      0.001732350026, max([F,P])=      0.001718616814
 orbitals (Q,E):
 ---------------
 S :1...2            ( 1.00    -0.2385)  ( 0.00     0.0908)
 P :1...1            ( 0.00     0.4054)

 CYCLE    5
  SDIIS (wt  1.000):  0.0236  0.9764
  DIIS coefficients:  0.0236  0.9764
 SCF Error: norm([F,P])=      0.000043673449, max([F,P])=      0.000039769875
 orbitals (Q,E):
 ---------------
 S :1...2            ( 1.00    -0.2386)  ( 0.00     0.0908)
 P :1...1            ( 0.00     0.4054)

 CYCLE    6
  SDIIS (wt  1.000): -0.0577  1.0577
  DIIS coefficients: -0.0577  1.0577
 SCF Error: norm([F,P])=      0.000002383805, max([F,P])=      0.000002158128
 orbitals (Q,E):
 ---------------
 S :1...2            ( 1.00    -0.2386)  ( 0.00     0.0908)
 P :1...1            ( 0.00     0.4054)

 CYCLE    7
  SDIIS (wt  1.000): -0.0032  1.0032
  DIIS coefficients: -0.0032  1.0032
 SCF Error: norm([F,P])=      0.000000007721, max([F,P])=      0.000000007228
 orbitals (Q,E):
 ---------------
 S :1...2            ( 1.00    -0.2386)  ( 0.00     0.0908)
 P :1...1            ( 0.00     0.4054)

 SCF CONVERGED

 CYCLE    8
1
 ***************************************************************************************************



                                                *******************
                                                *  R E S U L T S  *
                                                *******************
  
 *** Using FIT density in Focky
  SDIIS (wt  1.000):  0.0192  0.9808
  DIIS coefficients:  0.0192  0.9808
 SCF Error: norm([F,P])=      0.000000000151, max([F,P])=      0.000000000141

 Scaled ZORA Orbital Energies, per Irrep and Spin:
 =================================================
                        Occup              E (au)              E (eV)       Diff (eV) with prev. cycle
                        -----      --------------------        ------       --------------------------
 S
               1        1.000     -0.23861775226993E+00        -6.493               7.43E-09
               2        0.000      0.90791701709251E-01         2.471
               3        0.000      0.15217530108908E+01        41.409
 P
               1        0.000      0.40537978060393E+00        11.031


 Partially Occupied:
               1 S                -0.23861775226993E+00
  
 LUMO :        2 S                 0.90791701709251E-01
  


 Orbital Energies, all Irreps
 ========================================

 Irrep        no.  (spin)   Occup              E (au)                E (eV)
 ---------------------------------------------------------------------------
 S             1             1.00       -0.23861775226993E+00        -6.4931
 S             2             0.00        0.90791701709251E-01         2.4706
 P             1             0.00        0.40537978060393E+00        11.0309
 S             3             0.00        0.15217530108908E+01        41.4090


 All Electron Calculation, thus no Orbital Energies of the Core Orbitals are calculated



 =======================================
 M U L L I K E N   P O P U L A T I O N S
 =======================================
  
 The survey below gives for each atom:
 a) the total charge (Z minus electrons)
 b) the net spin polarization (nr of electrons spin-A minus spin-B)
 c) for each spin the atomic electron valence density (integrated) per L-value.

 Atom              Charge    Spin density          S         P         D         F
 ----              ------    ------------       ------    ------    ------    ------
 1 H              -0.0000                       1.0000    0.0000    0.0000    0.0000

 Populations of individual BAS functions
 ----------------------------------------
 1 H            0.2104  0.6788  0.1107  0.0000  0.0000  0.0000

 Gross Charges per Atom (Z minus electrons)
 ==========================================
            -0.0000
 Net Total: -0.00000000



 =======================================================================
 Electrostatic potential at the Nuclei due to electrons and other nuclei
 =======================================================================
  
         Atom                  Potential
         ----                  ---------
     1)   H                   0.94468022
 
 
 ========================
 No memory problems found
 ========================
 
 Maximum number of active allocate calls:         306
 
 *******************************************************************************

                             A D F   E X I T
 NORMAL TERMINATION



 =================
 Timing Statistics
 =================
  
 Total Used :                     CPU=        0.33      System=        0.02     Elapsed=        0.39

 Calls  Section                     ( Mean, Percentage )
 ---------------------------------------------------------------------------------------------------
     3  ><      ................      0.00    1.22             0.00    0.00             0.00    1.14
     1  INIT    ................      0.06   18.29             0.01   50.00             0.08   21.83
     1  GEOMET  ................      0.01    2.44             0.01   50.00             0.02    5.88
     1  INPUTA  ................      0.00    0.00             0.00    0.00             0.00    0.86
     1  MAINSY  ................      0.01    3.66             0.00    0.00             0.01    3.32
     1  SYMFIT  ................      0.00    0.00             0.00    0.00             0.00    0.42
     1  CORORT  ................      0.00    1.22             0.00    0.00             0.00    0.32
     1  SYMORB  ................      0.00    0.00             0.00    0.00             0.00    0.18
     1  CLSMAT  ................      0.00    1.22             0.00    0.00             0.01    1.33
     1  ORTHON  ................      0.00    1.22             0.00    0.00             0.00    1.21
     1  GENPT   ................      0.01    3.66             0.00    0.00             0.01    3.22
     1  PTBAS   ................      0.00    1.22             0.00    0.00             0.01    1.32
     8  FOCKY   ................      0.02   47.56             0.00    0.00             0.02   43.67
     8  FOCKTR  ................      0.00    0.00             0.00    0.00             0.00    1.22
     8  SDIIS   ................      0.00    9.76             0.00    0.00             0.00    5.52
     1  COREPS  ................      0.01    3.66             0.00    0.00             0.01    3.62
     1  POPAN   ................      0.00    1.22             0.00    0.00             0.00    1.20
     1  DEBYE   ................      0.00    0.00             0.00    0.00             0.00    0.47
     1  EXIT PROCEDURE .........      0.01    3.66             0.00    0.00             0.01    3.27


 Currently Open Files (EXIT00)
 ====================

 Unit    Access Format  Status   Type       Ident (file)
 -------------------------------------------------------
   3      SEQ    FORM   TRANSP  NORMAL      LOGFILE
                                          ( logfile )

 ***************************************************************************************************
 (LOGFILE)
 <Oct09-2020> <12:51:31>  DIRAC 2019  RunTime: Oct09-2020 12:51:31  Nodes: 1  Procs: 1
 <Oct09-2020> <12:51:31>  NORMAL TERMINATION
 <Oct09-2020> <12:51:31>  END
 <Oct09-2020> <12:51:31>  ADF 2019  RunTime: Oct09-2020 12:51:31  Nodes: 1  Procs: 1
 <Oct09-2020> <12:51:31>  Hydrogen (TZP)
 <Oct09-2020> <12:51:31>  RunType   : CREATE
 <Oct09-2020> <12:51:31>  Net Charge: 0 (Nuclei minus Electrons)
 <Oct09-2020> <12:51:31>  Symmetry  : ATOM
  Coordinates
    Atom         X           Y           Z   (Angstrom)
    1.H         0.000000    0.000000    0.000000
 <Oct09-2020> <12:51:31>  >>>> CORORT
 <Oct09-2020> <12:51:31>  >>>> CLSMAT
 <Oct09-2020> <12:51:31>  >>>> ORTHON
 <Oct09-2020> <12:51:31>  >>>> GENPT
 <Oct09-2020> <12:51:31>  Block Length=  64
 <Oct09-2020> <12:51:31>  >>>> PTBAS
 <Oct09-2020> <12:51:31>  >>>> CYCLE
 <Oct09-2020> <12:51:31>              |Error|         MaxErr       Wt(A-DIIS)
 <Oct09-2020> <12:51:31>      1      0.00000000      0.00000000
 <Oct09-2020> <12:51:31>      2      0.03153787      0.03011049
 <Oct09-2020> <12:51:31>      3      0.00861799      0.00834303    100.0
 <Oct09-2020> <12:51:31>      4      0.00173235      0.00171862      0.7
 <Oct09-2020> <12:51:31>      5      0.00004367      0.00003977      0.0
 <Oct09-2020> <12:51:31>      6      0.00000238      0.00000216      0.0
 <Oct09-2020> <12:51:31>      7      0.00000001      0.00000001      0.0
 <Oct09-2020> <12:51:31>  SCF converged
 <Oct09-2020> <12:51:31>      8      0.00000000      0.00000000      0.0
 <Oct09-2020> <12:51:31>  >>>> POPAN
 <Oct09-2020> <12:51:31>  >>>> DEBYE
 <Oct09-2020> <12:51:31>  NORMAL TERMINATION
 <Oct09-2020> <12:51:31>  END

 *******************************************************************************
 *                                                                             *
 *  -------------------------------------                                      *
 *   Amsterdam Density Functional  (ADF)         2019                          *
 *  -------------------------------------                                      *
 *                                               r79301 2019-11-09             *
 *                                                                             *
 *                                                                             *
 *                            =====================                            *
 *                            |                   |                            *
 *                            |     D I R A C     |                            *
 *                            |                   |                            *
 *                            =====================                            *
 *                                                                             *
 *                                                                             *
 *   Online information and documentation:  https://www.scm.com/support/       *
 *   E-mail:  support@scm.com   info@scm.com                                   *
 *                                                                             *
 *   Scientific publications using ADF results must be properly referenced     *
 *   See the User Manuals (or the web site) for recommended citations          *
 *   The terms and conditions of the End User License Agreement apply to       *
 *   the use of ADF, https://www.scm.com/license-terms/                        *
 *                                                                             *
 **********************  x86_64_linux_intel / intelmpi  ************************
 
 
 
  
 DIRAC 2019  RunTime: Oct09-2020 12:51:31  Nodes: 1  Procs: 1

 Temporary files are created in /scratch/kid_0.1226540456 (0x58465342)

1
 TUNGSTEN ATOM 4d CORE RELATIVISTIC, Point Nuc, A and c from 
 N J RN H ZN XION ANUC CLIGHT
 5000   22100.00000000197.36710137 74.00000000  0.00000000  183.950932  0.1370360E+03
  PH   PHI     EPS        DEL        DELRVR
  0.30  0.30     2500.00  0.00001000  0.00001000
 IDIRC  NC1  NDEBU NPRIN  IPUN IRCOR IWCOR
   1   300     0     0     0     0    14
   XALPHA      XLATTER      RNUC
  0.70000000  0.00000000  0.00000000 Point Charge
   XN   XL   XJ      XE          XZ      XDELL
  1.0  0.0  0.5   -2600.000       2.000     0.00000
  2.0  0.0  0.5    -425.000       2.000     0.00000
  2.0  1.0  0.5    -425.000       2.000     0.00000
  2.0  1.0  1.5    -425.000       4.000     0.00000
  3.0  0.0  0.5    -100.000       2.000     0.00000
  3.0  1.0  0.5    -100.000       2.000     0.00000
  3.0  1.0  1.5    -100.000       4.000     0.00000
  3.0  2.0  1.5     -80.000       4.000     0.00000
  3.0  2.0  2.5     -80.000       6.000     0.00000
  4.0  0.0  0.5     -22.000       2.000     0.00000
  4.0  1.0  0.5     -20.000       2.000     0.00000
  4.0  1.0  1.5     -20.000       4.000     0.00000
  4.0  2.0  1.5     -11.000       4.000     0.00000
  4.0  2.0  2.5     -11.000       6.000     0.00000
  4.0  3.0  2.5      -1.000       6.000     0.00000
  4.0  3.0  3.5      -1.000       8.000     0.00000
  5.0  0.0  0.5      -3.000       2.000     0.00000
  5.0  1.0  0.5      -2.200       2.000     0.00000
  5.0  1.0  1.5      -2.200       4.000     0.00000
  5.0  2.0  1.5      -0.500       4.000     0.00000
  5.0  2.0  2.5      -0.500       0.000     0.00000
  6.0  0.0  0.5      -0.200       2.000     0.00000
 ICORP=  0  NPCL=  0  DEMP=0.00  PEPS=0.000000
 R(1)=  0.1000000E-08 D=  0.1005080E+01 RNUC=  0.0000000E+00
 converged at cycle   63  DENSITY AVERAGING    0.1536
  MAXIMUM ERROR IN R.V(R) IS   0.78838062E-05
 Q,EY,EV,EZ,ESUM,ETOT,RHO  0.740000E+02 -0.431420E+03 -0.281568E+05 -0.403919E+05 -0.993885E+04 -0.161643E+05  0.726391E-09


 DIRAC CALCULATION
1                    TUNGSTEN ATOM 4d CORE RELATIVISTIC, Point Nuc, A and c from libtc


 EXCHANGE COEFFICIENT=  0.7000000           TAIL CORRECTION=  0.           NUCLEAR RADIUS=  0.000E+00
0                       ORBITAL    N    L    J     ELECTRONS     EIGENVALUE                DELTA OF EIGENV.

                          1S1/2  1.0  0.0  0.5     2.000       -0.2549514E+04                 0.5980248E-04
                          2S1/2  2.0  0.0  0.5     2.000       -0.4399118E+03                 0.5052420E-04
                          2P1/2  2.0  1.0  0.5     2.000       -0.4208427E+03                 0.5265062E-04
                          2P3/2  2.0  1.0  1.5     4.000       -0.3711192E+03                 0.5139441E-04
                          3S1/2  3.0  0.0  0.5     2.000       -0.1012881E+03                 0.3437035E-04
                          3P1/2  3.0  1.0  0.5     2.000       -0.9277148E+02                 0.3553128E-04
                          3P3/2  3.0  1.0  1.5     4.000       -0.8201733E+02                 0.3404634E-04
                          3D3/2  3.0  2.0  1.5     4.000       -0.6762803E+02                 0.3680712E-04
                          3D5/2  3.0  2.0  2.5     6.000       -0.6528623E+02                 0.3629511E-04
                          4S1/2  4.0  0.0  0.5     2.000       -0.2084139E+02                 0.1939427E-04
                          4P1/2  4.0  1.0  0.5     2.000       -0.1730737E+02                 0.1933978E-04
                          4P3/2  4.0  1.0  1.5     4.000       -0.1480597E+02                 0.1810922E-04
                          4D3/2  4.0  2.0  1.5     4.000       -0.8989319E+01                 0.1779394E-04
                          4D5/2  4.0  2.0  2.5     6.000       -0.8528007E+01                 0.1741170E-04
                          4F5/2  4.0  3.0  2.5     6.000       -0.1237480E+01                 0.1544089E-04
                          4F7/2  4.0  3.0  3.5     8.000       -0.1154634E+01                 0.1522033E-04
                          5S1/2  5.0  0.0  0.5     2.000       -0.2863514E+01                 0.7979521E-05
                          5P1/2  5.0  1.0  0.5     2.000       -0.1813289E+01                 0.7246225E-05
                          5P3/2  5.0  1.0  1.5     4.000       -0.1448762E+01                 0.6602120E-05
                          5D3/2  5.0  2.0  1.5     4.000       -0.1486933E+00                 0.3973088E-05
                          5D5/2  5.0  2.0  2.5     0.000       -0.1223153E+00                 0.3735081E-05
                          6S1/2  6.0  0.0  0.5     2.000       -0.1847434E+00                 0.1808440E-05


                                        NUCLEAR CHARGE=   74.000000
                            INTEGRAL OF CHARGE DENSITY=   74.000000
                           SUM OF THE ORBITAL ENERGIES=  -9938.8529
                                          TOTAL ENERGY= -16164.2530
                                        KINETIC ENERGY=  18217.9700
                             NUCLEAR ATTRACTION ENERGY= -40391.9132
                             ELECTRON REPULSION ENERGY=   6333.2551
                                       EXCHANGE ENERGY=   -323.5649

 *******************************************************************************

                             D I R A C   E X I T
 NORMAL TERMINATION



 =================
 Timing Statistics
 =================
  
 Total Used :                     CPU=        0.68      System=        0.01     Elapsed=        0.69

 Calls  Section                     ( Mean, Percentage )
 ---------------------------------------------------------------------------------------------------
     2  ><      ................      0.00    0.00             0.00    0.00             0.00    0.00
     1  EXIT PROCEDURE .........      0.68  100.00             0.01  100.00             0.69  100.00


 Currently Open Files (EXIT00)
 ====================

 Unit    Access Format  Status   Type       Ident (file)
 -------------------------------------------------------
   3      SEQ    FORM   TRANSP  NORMAL      LOGFILE
                                          ( logfile )
 
Create W   file=TZP-W.4d
XC
  GGA PBE
End
relativistic ZORA
Corepotentials t12.rel
End

 *******************************************************************************
 *                                                                             *
 *  -------------------------------------                                      *
 *   Amsterdam Density Functional  (ADF)         2019                          *
 *  -------------------------------------                                      *
 *                                               r79301 2019-11-09             *
 *                                                                             *
 *                                                                             *
 *                              =================                              *
 *                              |               |                              *
 *                              |     A D F     |                              *
 *                              |               |                              *
 *                              =================                              *
 *                                                                             *
 *                                                                             *
 *   Online information and documentation:  https://www.scm.com/support/       *
 *   E-mail:  support@scm.com   info@scm.com                                   *
 *                                                                             *
 *   Scientific publications using ADF results must be properly referenced     *
 *   See the User Manuals (or the web site) for recommended citations          *
 *   The terms and conditions of the End User License Agreement apply to       *
 *   the use of ADF, https://www.scm.com/license-terms/                        *
 *                                                                             *
 **********************  x86_64_linux_intel / intelmpi  ************************
 
 
 
  
 ADF 2019  RunTime: Oct09-2020 12:51:32  Nodes: 1  Procs: 1

 Temporary files are created in /scratch/kid_0.1933261485 (0x58465342)

 Tungsten (TZP, 4d frozen)



 ===========================
 A T T A C H E D   F I L E S
 ===========================
  
 CREATE - Data File:    TZP-W.4d
                        Tungsten (TZP, 4d frozen)
 Core Potentials:
         file : t12.rel



 ===============================
 M O D E L   P A R A M E T E R S
 ===============================
  
 DENSITY FUNCTIONAL POTENTIAL (scf)
    LDA:                               PW92                                    == Not Default ==
    Gradient Corrections:              PBEc PBEx                               == Not Default ==

 SPIN  (restricted / unrestr.)
    Molecule:                          Restricted                               

 OTHER ASPECTS
    Relativistic Corrections:          scalar (ZORA,MAPA)                      == Not Default ==

    Nuclear Charge Density Model:      Point Charge Nuclei                      
    Core Treatment:                    Frozen Orbital(s)                        

    Hyperfine or Zeeman Interaction:   ---                                      



 =====================================
 S Y M M E T R Y ,   E L E C T R O N S
 =====================================
  
 Symmetry: ATOM

 Irreducible Representations, including subspecies
 -------------------------------------------------
 S
 P:x  P:y  P:z
 D:z2  D:x2-y2  D:xy  D:xz  D:yz
 F:z3  F:z  F:xyz  F:z2x  F:z2y  F:x  F:y


 Configuration of Valence Electrons
 ==================================

          Occupation Numbers
          -------------------------------------------------
 S        2*2
 P        6
 D        4
 F        14
          -------------------------------------------------

 Total:   28

 Net Charge: 0 (Nuclei minus Electrons)

 Preset values for MO occupations will be applied through SCF cycle no. 1000000
 Thereafter, the program will assign electrons to MOs that are spatially
 similar to the occupied MOs in a "reference" cycle ("KeepOrbitals").
 The reference cycle is always the PREVIOUS cycle: it will evolve with
 the SCF procedure.



 ================================
 (Slater-type)  F U N C T I O N S  ***  (Basis and Fit)  ***
 ================================
  

 Atom Type    1  (W)
 ==============

 Valence Basis Sets:  25
 -----------------------
   1 S   52.000000
   2 S   33.250000
   3 S   19.100000
   4 S   11.650000
   2 P   36.850000
   3 P   16.500000
   4 P   11.550000
   3 D   20.100000
   4 D   10.300000
   1 S  163.900000
   5 S    6.050000
   5 S    3.950000
   6 S    2.850000
   6 S    1.800000
   6 S    1.140000
   5 P    5.900000
   5 P    4.000000
   5 P    2.700000
   5 D    4.150000
   5 D    2.250000
   5 D    1.200000
   4 F   13.550000
   4 F    7.050000
   4 F    3.550000
   6 P    1.800000

 Frozen Core Shells
 ------------------
    S:  4
    P:  3
    D:  2


 BAS: List of all Elementary Cartesian Basis Functions
 =====================================================

 The numbering in the list below (to the right of the function characteristics) is referred
 to in print-outs of MO eigenvectors and Mulliken populations in the BAS representation
 (as contrasted to the SFO representation).

 Notes:
 1. The functions are characterized by a polynomial prefactor (powers of x,y,z and r) and
    an exponential decay factor alpha.
 2. Since the basis sets are specific for an atom TYPE, the individual functions occur on
    all atoms of that type.
 3. The word 'Core' in the left margin signals that it is a Core Function (CF) : not a
    degree of freedom in the valence set, but only used to ensure orthogonalization of
    the other valence basis functions on the frozen Core Orbitals.


 (power of) X  Y  Z  R     Alpha  on Atom
            ==========     =====     ==========

 W                                    1
                                  ---------------------------------------------------------------------------
    Core    0  0  0  0    52.000      1
    Core    0  0  0  1    33.250      2
    Core    0  0  0  2    19.100      3
    Core    0  0  0  3    11.650      4
    Core    1  0  0  0    36.850      5
    Core    0  1  0  0    36.850      6
    Core    0  0  1  0    36.850      7
    Core    1  0  0  1    16.500      8
    Core    0  1  0  1    16.500      9
    Core    0  0  1  1    16.500     10
    Core    1  0  0  2    11.550     11
    Core    0  1  0  2    11.550     12
    Core    0  0  1  2    11.550     13
    Core    2  0  0  0    20.100     14
    Core    1  1  0  0    20.100     15
    Core    1  0  1  0    20.100     16
    Core    0  2  0  0    20.100     17
    Core    0  1  1  0    20.100     18
    Core    0  0  2  0    20.100     19
    Core    2  0  0  1    10.300     20
    Core    1  1  0  1    10.300     21
    Core    1  0  1  1    10.300     22
    Core    0  2  0  1    10.300     23
    Core    0  1  1  1    10.300     24
    Core    0  0  2  1    10.300     25
            0  0  0  0   163.900     26
            0  0  0  4     6.050     27
            0  0  0  4     3.950     28
            0  0  0  5     2.850     29
            0  0  0  5     1.800     30
            0  0  0  5     1.140     31
            1  0  0  3     5.900     32
            0  1  0  3     5.900     33
            0  0  1  3     5.900     34
            1  0  0  3     4.000     35
            0  1  0  3     4.000     36
            0  0  1  3     4.000     37
            1  0  0  3     2.700     38
            0  1  0  3     2.700     39
            0  0  1  3     2.700     40
            2  0  0  2     4.150     41
            1  1  0  2     4.150     42
            1  0  1  2     4.150     43
            0  2  0  2     4.150     44
            0  1  1  2     4.150     45
            0  0  2  2     4.150     46
            2  0  0  2     2.250     47
            1  1  0  2     2.250     48
            1  0  1  2     2.250     49
            0  2  0  2     2.250     50
            0  1  1  2     2.250     51
            0  0  2  2     2.250     52
            2  0  0  2     1.200     53
            1  1  0  2     1.200     54
            1  0  1  2     1.200     55
            0  2  0  2     1.200     56
            0  1  1  2     1.200     57
            0  0  2  2     1.200     58
            3  0  0  0    13.550     59
            2  1  0  0    13.550     60
            2  0  1  0    13.550     61
            1  2  0  0    13.550     62
            1  1  1  0    13.550     63
            1  0  2  0    13.550     64
            0  3  0  0    13.550     65
            0  2  1  0    13.550     66
            0  1  2  0    13.550     67
            0  0  3  0    13.550     68
            3  0  0  0     7.050     69
            2  1  0  0     7.050     70
            2  0  1  0     7.050     71
            1  2  0  0     7.050     72
            1  1  1  0     7.050     73
            1  0  2  0     7.050     74
            0  3  0  0     7.050     75
            0  2  1  0     7.050     76
            0  1  2  0     7.050     77
            0  0  3  0     7.050     78
            3  0  0  0     3.550     79
            2  1  0  0     3.550     80
            2  0  1  0     3.550     81
            1  2  0  0     3.550     82
            1  1  1  0     3.550     83
            1  0  2  0     3.550     84
            0  3  0  0     3.550     85
            0  2  1  0     3.550     86
            0  1  2  0     3.550     87
            0  0  3  0     3.550     88
            1  0  0  4     1.800     89
            0  1  0  4     1.800     90
            0  0  1  4     1.800     91

 Total number of charge fitting functions (nprimf)       329
 Total number of Cartesian basis functions (naos)         91
 Total number of Cartesian core functions  (ncos)         25



 BAS: List of all Elementary Cartesian Basis Functions
 =====================================================

 The numbering in the list below (to the right of the function characteristics) is referred
 to in print-outs of MO eigenvectors and Mulliken populations in the BAS representation
 (as contrasted to the SFO representation).

 Notes:
 1. The functions are characterized by a polynomial prefactor (powers of x,y,z and r) and
    an exponential decay factor alpha.
 2. Since the basis sets are specific for an atom TYPE, the individual functions occur on
    all atoms of that type.
 3. The word 'Core' in the left margin signals that it is a Core Function (CF) : not a
    degree of freedom in the valence set, but only used to ensure orthogonalization of
    the other valence basis functions on the frozen Core Orbitals.


 (power of) X  Y  Z  R     Alpha  on Atom
            ==========     =====     ==========

 W                                    1
                                  ---------------------------------------------------------------------------
    Core    0  0  0  0    52.000      1
    Core    0  0  0  1    33.250      2
    Core    0  0  0  2    19.100      3
    Core    0  0  0  3    11.650      4
    Core    1  0  0  0    36.850      5
    Core    0  1  0  0    36.850      6
    Core    0  0  1  0    36.850      7
    Core    1  0  0  1    16.500      8
    Core    0  1  0  1    16.500      9
    Core    0  0  1  1    16.500     10
    Core    1  0  0  2    11.550     11
    Core    0  1  0  2    11.550     12
    Core    0  0  1  2    11.550     13
    Core    2  0  0  0    20.100     14
    Core    1  1  0  0    20.100     15
    Core    1  0  1  0    20.100     16
    Core    0  2  0  0    20.100     17
    Core    0  1  1  0    20.100     18
    Core    0  0  2  0    20.100     19
    Core    2  0  0  1    10.300     20
    Core    1  1  0  1    10.300     21
    Core    1  0  1  1    10.300     22
    Core    0  2  0  1    10.300     23
    Core    0  1  1  1    10.300     24
    Core    0  0  2  1    10.300     25
            0  0  0  0   163.900     26
            0  0  0  4     6.050     27
            0  0  0  4     3.950     28
            0  0  0  5     2.850     29
            0  0  0  5     1.800     30
            0  0  0  5     1.140     31
            1  0  0  3     5.900     32
            0  1  0  3     5.900     33
            0  0  1  3     5.900     34
            1  0  0  3     4.000     35
            0  1  0  3     4.000     36
            0  0  1  3     4.000     37
            1  0  0  3     2.700     38
            0  1  0  3     2.700     39
            0  0  1  3     2.700     40
            2  0  0  2     4.150     41
            1  1  0  2     4.150     42
            1  0  1  2     4.150     43
            0  2  0  2     4.150     44
            0  1  1  2     4.150     45
            0  0  2  2     4.150     46
            2  0  0  2     2.250     47
            1  1  0  2     2.250     48
            1  0  1  2     2.250     49
            0  2  0  2     2.250     50
            0  1  1  2     2.250     51
            0  0  2  2     2.250     52
            2  0  0  2     1.200     53
            1  1  0  2     1.200     54
            1  0  1  2     1.200     55
            0  2  0  2     1.200     56
            0  1  1  2     1.200     57
            0  0  2  2     1.200     58
            3  0  0  0    13.550     59
            2  1  0  0    13.550     60
            2  0  1  0    13.550     61
            1  2  0  0    13.550     62
            1  1  1  0    13.550     63
            1  0  2  0    13.550     64
            0  3  0  0    13.550     65
            0  2  1  0    13.550     66
            0  1  2  0    13.550     67
            0  0  3  0    13.550     68
            3  0  0  0     7.050     69
            2  1  0  0     7.050     70
            2  0  1  0     7.050     71
            1  2  0  0     7.050     72
            1  1  1  0     7.050     73
            1  0  2  0     7.050     74
            0  3  0  0     7.050     75
            0  2  1  0     7.050     76
            0  1  2  0     7.050     77
            0  0  3  0     7.050     78
            3  0  0  0     3.550     79
            2  1  0  0     3.550     80
            2  0  1  0     3.550     81
            1  2  0  0     3.550     82
            1  1  1  0     3.550     83
            1  0  2  0     3.550     84
            0  3  0  0     3.550     85
            0  2  1  0     3.550     86
            0  1  2  0     3.550     87
            0  0  3  0     3.550     88
            1  0  0  4     1.800     89
            0  1  0  4     1.800     90
            0  0  1  4     1.800     91
1
 ***************************************************************************************************



                                              ***********************
                                              *  T E C H N I C A L  *
                                              ***********************
  



 =============================================================
 P A R A L L E L I Z A T I O N  and  V E C T O R I Z A T I O N
 =============================================================
  
 Nr of parallel processes:                                1
 Maximum vector length in NumInt loops:                 128



 =====================
 S C F   U P D A T E S
 =====================
  
 Max. nr. of cycles:                               300
 Convergence criterion:                              0.0000000100
   secondary criterion:                              0.0000000100

 Mix parameter (when DIIS does not apply):           0.2000000000
 Special mix parameter for the first cycle:          1.0000000000
 Mixed ADIIS+SDIIS will be used                  
    Max number of expansion vectors:                10
    Pure ADIIS when Max([F,P]) is above              0.1000000000
    Pure SDIIS when Max([F,P]) is below              0.0010000000
 Automatic ElectronSmearing (in case of problematic SCF convergence) disabled



 =================
 P R E C I S I O N  ***  (General: NumInt, NeglectFunctionTails, ...)  ***
 =================
  

 NumInt:           Target precision:                12.0000000000
 -------           Initial precision:               10.0000000000
                   Min. precision (optimization):   10.0000000000

 Neglect Functions:          Basis functions:        0.1000000000E-13
 ------------------          Fit functions:          0.1000000000E-13



 ===========================
 L I N E A R   S C A L I N G
 ===========================
  

 Cut-off radii density fit:                        0.1000000000E-97
 Overlap cut-off criterion AO matrix elements:     0.1000000000E-97
 Cut-offs for Coulomb potential and fitted density:0.1000000000E-97
 Cut-off criterion for Coulomb multipole terms:    0.1000000000E-97
 Progressive Convergence parameter:                 0.000000000    
1
 ***************************************************************************************************



                                            ***************************
                                            *  C O M P U T A T I O N  *
                                            ***************************
  

 Number of elements of the density matrix on this node (used, total):      4186      4186



 ===========================================
 Numerical Integration : Fuzzy Cells (Becke)
 ===========================================
  
 Becke grid quality: VERYGOOD       
  
 Lebedev angular grid order:             min:  13 max:  41
 Nr. of radial points:                   min: 145 max: 145

 Total nr. of points:        145
 Nr. of blocks:                2
 Block length:                73
 Nr. of dummy points:          1


 Test of Precision of the Numerical Integration Grid
 ===================================================

 Integral of the Total Core Density:                  46.00000002324492
 Relative Error:                                       5.053E-10



 ========================
 Density Fitting (zlmFit)
 ========================
  
 ZlmFit Fit Quality: VERYGOOD       
  
 Max L-expansion:                        min:   0 max:   0
 Nr. of radial interpolation points:     min: 340 max: 340



 =====
 S C F  ***  ScaSCF  ***
 =====
  

 CYCLE    1
 SCF Error: norm([F,P])=      0.000000000000, max([F,P])=      0.000000000000
 orbitals (Q,E):
 ---------------
 S :1...6            ( 2.00   -28.2058)  ( 2.00   -16.4725)  ( 0.00   -10.3738)  ( 0.00    -6.6321)
                     ( 0.00    -4.0998)  ( 0.00  3013.3587)
 P :1...4            ( 6.00   -26.2502)  ( 0.00   -15.6809)  ( 0.00   -10.1451)  ( 0.00    -6.3840)
 D :1...3            ( 4.00   -20.3774)  ( 0.00   -10.3968)  ( 0.00    -5.4917)
 F :1...3            (14.00   -35.0607)  ( 0.00   -19.0417)  ( 0.00   -12.0152)

 CYCLE    2
  SDIIS (wt  0.000):  1.0000  0.0000
 A-DIIS (wt  1.000):  0.1993  0.8007
  DIIS coefficients:  0.1993  0.8007
 SCF Error: norm([F,P])=     40.907082825658, max([F,P])=      9.977402120499
 orbitals (Q,E):
 ---------------
 S :1...3            ( 2.00    -4.6780)  ( 2.00    -1.8638)  ( 0.00    -0.9989)
 P :1...2            ( 6.00    -3.4915)  ( 0.00    -1.5122)
 D :1...2            ( 4.00    -2.0619)  ( 0.00    -1.0071)
 F :1...2            (14.00    -1.8107)  ( 0.00     1.1317)

 CYCLE    3
  SDIIS (wt  0.000):  0.3180  0.6820
 A-DIIS (wt  1.000):  0.2378  0.7622
  DIIS coefficients:  0.2378  0.7622
 SCF Error: norm([F,P])=     22.137766809988, max([F,P])=      7.956550621467
 orbitals (Q,E):
 ---------------
 S :1...3            ( 2.00    -3.1832)  ( 2.00    -0.0954)  ( 0.00     0.0950)
 P :1...2            ( 6.00    -1.7164)  ( 0.00     0.0796)
 D :1...2            ( 4.00    -0.0523)  ( 0.00     0.2166)
 F :1...2            (14.00    -2.9552)  ( 0.00     2.1680)

 CYCLE    4
  SDIIS (wt  0.000): -0.1470  0.2408  0.9063
 A-DIIS (wt  1.000):  0.0000  0.1960  0.8040
  DIIS coefficients:  0.0000  0.1960  0.8040
 SCF Error: norm([F,P])=     11.319258211122, max([F,P])=      3.388378774288
 orbitals (Q,E):
 ---------------
 S :1...3            ( 2.00    -2.5382)  ( 2.00    -0.1744)  ( 0.00     0.0568)
 P :1...2            ( 6.00    -1.3109)  ( 0.00     0.0041)
 D :1...2            ( 4.00    -0.0593)  ( 0.00     0.1840)
 F :1...2            (14.00    -0.4483)  ( 0.00     2.6543)

 CYCLE    5
  SDIIS (wt  0.000): -0.0453 -0.0639  0.4150  0.6941
 A-DIIS (wt  1.000):  0.0000  0.0000  0.2956  0.7044
  DIIS coefficients:  0.0000  0.0000  0.2956  0.7044
 SCF Error: norm([F,P])=      6.468352795626, max([F,P])=      2.222974642389
 orbitals (Q,E):
 ---------------
 S :1...3            ( 2.00    -3.2723)  ( 2.00    -0.3187)  ( 0.00     0.0098)
 P :1...2            ( 6.00    -1.9237)  ( 0.00    -0.1006)
 D :1...2            ( 4.00    -0.3847)  ( 0.00     0.0899)
 F :1...2            (14.00    -1.8198)  ( 0.00     1.9560)

 CYCLE    6
  SDIIS (wt  0.000): -0.0085 -0.0399  0.0839  0.4322  0.5323
 A-DIIS (wt  1.000):  0.0000  0.0000  0.0000  0.2109  0.7891
  DIIS coefficients:  0.0000  0.0000  0.0000  0.2109  0.7891
 SCF Error: norm([F,P])=      2.472496419763, max([F,P])=      0.770355067313
 orbitals (Q,E):
 ---------------
 S :1...3            ( 2.00    -2.6997)  ( 2.00    -0.1670)  ( 0.00     0.0637)
 P :1...2            ( 6.00    -1.4226)  ( 0.00     0.0144)
 D :1...2            ( 4.00    -0.0756)  ( 0.00     0.1818)
 F :1...2            (14.00    -0.9561)  ( 0.00     2.4590)

 CYCLE    7
  SDIIS (wt  0.000): -0.0027  0.0194 -0.0224 -0.1264  0.3712  0.7611
 A-DIIS (wt  1.000):  0.0000  0.0000  0.0000  0.0000  0.2987  0.7013
  DIIS coefficients:  0.0000  0.0000  0.0000  0.0000  0.2987  0.7013
 SCF Error: norm([F,P])=      1.326888571519, max([F,P])=      0.409877416513
 orbitals (Q,E):
 ---------------
 S :1...3            ( 2.00    -2.9765)  ( 2.00    -0.2356)  ( 0.00     0.0368)
 P :1...2            ( 6.00    -1.6652)  ( 0.00    -0.0389)
 D :1...2            ( 4.00    -0.2166)  ( 0.00     0.1330)
 F :1...2            (14.00    -1.3505)  ( 0.00     2.2150)

 CYCLE    8
  SDIIS (wt  0.000): -0.0001 -0.0032  0.0101  0.0022 -0.1365  0.1637  0.9637
 A-DIIS (wt  1.000):  0.0000  0.0000  0.0000  0.0000  0.0000  0.1133  0.8867
  DIIS coefficients:  0.0000  0.0000  0.0000  0.0000  0.0000  0.1133  0.8867
 SCF Error: norm([F,P])=      0.417265552811, max([F,P])=      0.123103983384
 orbitals (Q,E):
 ---------------
 S :1...3            ( 2.00    -2.8269)  ( 2.00    -0.1934)  ( 0.00     0.0514)
 P :1...2            ( 6.00    -1.5319)  ( 0.00    -0.0062)
 D :1...2            ( 4.00    -0.1328)  ( 0.00     0.1598)
 F :1...2            (14.00    -1.1429)  ( 0.00     2.3483)

 CYCLE    9
  SDIIS (wt  0.000): -0.0000 -0.0005  0.0032 -0.0055 -0.0134 -0.0769  0.3889  0.7044
 A-DIIS (wt  1.000):  0.0000  0.0000  0.0000  0.0000  0.0000  0.0000  0.4605  0.5395
  DIIS coefficients:  0.0000  0.0000  0.0000  0.0000  0.0000  0.0000  0.4605  0.5395
 SCF Error: norm([F,P])=      0.436344656895, max([F,P])=      0.135977974745
 orbitals (Q,E):
 ---------------
 S :1...3            ( 2.00    -2.8921)  ( 2.00    -0.2089)  ( 0.00     0.0455)
 P :1...2            ( 6.00    -1.5884)  ( 0.00    -0.0182)
 D :1...2            ( 4.00    -0.1653)  ( 0.00     0.1491)
 F :1...2            (14.00    -1.2444)  ( 0.00     2.2903)

 CYCLE   10
  SDIIS (wt  0.791): -0.0000 -0.0000 -0.0008  0.0050  0.0002 -0.0572  0.0662  0.2518  0.7349
 A-DIIS (wt  0.209):  0.0000  0.0000  0.0000  0.0000  0.0000  0.0000  0.0000  0.0000  1.0000
  DIIS coefficients: -0.0000 -0.0000 -0.0006  0.0039  0.0002 -0.0453  0.0524  0.1992  0.7903
 SCF Error: norm([F,P])=      0.064290018174, max([F,P])=      0.021683563602
 orbitals (Q,E):
 ---------------
 S :1...3            ( 2.00    -2.8892)  ( 2.00    -0.2088)  ( 0.00     0.0453)
 P :1...2            ( 6.00    -1.5864)  ( 0.00    -0.0182)
 D :1...2            ( 4.00    -0.1648)  ( 0.00     0.1492)
 F :1...2            (14.00    -1.2344)  ( 0.00     2.2932)

 CYCLE   11
  SDIIS (wt  0.943):  0.0000  0.0000  0.0003 -0.0019 -0.0002  0.0169 -0.0071 -0.0713  1.0633
 A-DIIS (wt  0.057):  0.0000  0.0000  0.0000  0.0000  0.0000  0.0000  0.0000  0.0000  1.0000
  DIIS coefficients:  0.0000  0.0000  0.0003 -0.0018 -0.0002  0.0159 -0.0067 -0.0673  1.0597
 SCF Error: norm([F,P])=      0.019862243149, max([F,P])=      0.006614525832
 orbitals (Q,E):
 ---------------
 S :1...3            ( 2.00    -2.8906)  ( 2.00    -0.2091)  ( 0.00     0.0452)
 P :1...2            ( 6.00    -1.5875)  ( 0.00    -0.0184)
 D :1...2            ( 4.00    -0.1654)  ( 0.00     0.1490)
 F :1...2            (14.00    -1.2376)  ( 0.00     2.2919)

 CYCLE   12
  SDIIS (wt  1.000):  0.0000 -0.0000  0.0001  0.0002 -0.0010 -0.0025  0.0027  1.0005
  DIIS coefficients:  0.0000 -0.0000  0.0001  0.0002 -0.0010 -0.0025  0.0027  1.0005
 SCF Error: norm([F,P])=      0.001704368638, max([F,P])=      0.000557703294
 orbitals (Q,E):
 ---------------
 S :1...3            ( 2.00    -2.8904)  ( 2.00    -0.2090)  ( 0.00     0.0452)
 P :1...2            ( 6.00    -1.5874)  ( 0.00    -0.0184)
 D :1...2            ( 4.00    -0.1653)  ( 0.00     0.1490)
 F :1...2            (14.00    -1.2373)  ( 0.00     2.2920)

 CYCLE   13
  SDIIS (wt  1.000): -0.0000 -0.0000 -0.0000 -0.0001  0.0001 -0.0012  0.0054  0.1443  0.8513
  DIIS coefficients: -0.0000 -0.0000 -0.0000 -0.0001  0.0001 -0.0012  0.0054  0.1443  0.8513
 SCF Error: norm([F,P])=      0.000011644128, max([F,P])=      0.000003087302
 orbitals (Q,E):
 ---------------
 S :1...3            ( 2.00    -2.8904)  ( 2.00    -0.2090)  ( 0.00     0.0452)
 P :1...2            ( 6.00    -1.5874)  ( 0.00    -0.0184)
 D :1...2            ( 4.00    -0.1653)  ( 0.00     0.1490)
 F :1...2            (14.00    -1.2373)  ( 0.00     2.2920)

 CYCLE   14
  SDIIS (wt  1.000): -0.0000 -0.0001 -0.0006 -0.0016  1.0022
  DIIS coefficients: -0.0000 -0.0001 -0.0006 -0.0016  1.0022
 SCF Error: norm([F,P])=      0.000000013756, max([F,P])=      0.000000003650
 orbitals (Q,E):
 ---------------
 S :1...3            ( 2.00    -2.8904)  ( 2.00    -0.2090)  ( 0.00     0.0452)
 P :1...2            ( 6.00    -1.5874)  ( 0.00    -0.0184)
 D :1...2            ( 4.00    -0.1653)  ( 0.00     0.1490)
 F :1...2            (14.00    -1.2373)  ( 0.00     2.2920)

 SCF CONVERGED

 CYCLE   15
1
 ***************************************************************************************************



                                                *******************
                                                *  R E S U L T S  *
                                                *******************
  
 *** Using FIT density in Focky
  SDIIS (wt  1.000): -0.0000 -0.0000 -0.0330  1.0330
  DIIS coefficients: -0.0000 -0.0000 -0.0330  1.0330
 SCF Error: norm([F,P])=      0.000000001904, max([F,P])=      0.000000000603

 Scaled ZORA Orbital Energies, per Irrep and Spin:
 =================================================
                        Occup              E (au)              E (eV)       Diff (eV) with prev. cycle
                        -----      --------------------        ------       --------------------------
 S
               1        2.000     -0.28904146058127E+01       -78.652               1.69E-08
               2        2.000     -0.20903700188629E+00        -5.688               1.07E-08
               3        0.000      0.45235059600390E-01         1.231
               4        0.000      0.56065479131102E+00        15.256
               5        0.000      0.33274541694695E+01        90.545
               6        0.000      0.30455860934223E+04     82874.614
 P
               1        6.000     -0.15873724268739E+01       -43.195               1.66E-08
               2        0.000     -0.18381804002204E-01        -0.500
               3        0.000      0.75931517673518E+00        20.662
               4        0.000      0.46642512103918E+01       126.921
 D
               1        4.000     -0.16528259673378E+00        -4.498               1.44E-08
               2        0.000      0.14901440684398E+00         4.055
               3        0.000      0.12244232958062E+01        33.318
 F
               1       14.000     -0.12372769632872E+01       -33.668               2.06E-08
               2        0.000      0.22920435821192E+01        62.370
               3        0.000      0.17401159156906E+02       473.510


 Partially Occupied:
               1 D                -0.16528259673378E+00
  
 HOMO :        2 S                -0.20903700188629E+00
 LUMO :        2 P                -0.18381804002204E-01
  


 Orbital Energies, all Irreps
 ========================================

 Irrep        no.  (spin)   Occup              E (au)                E (eV)
 ---------------------------------------------------------------------------
 S             1             2.00       -0.28904146058127E+01       -78.6522
 P             1             6.00       -0.15873724268739E+01       -43.1946
 F             1            14.00       -0.12372769632872E+01       -33.6680
 S             2             2.00       -0.20903700188629E+00        -5.6882
 D             1             4.00       -0.16528259673378E+00        -4.4976
 P             2             0.00       -0.18381804002204E-01        -0.5002
 S             3             0.00        0.45235059600390E-01         1.2309
 D             2             0.00        0.14901440684398E+00         4.0549
 S             4             0.00        0.56065479131102E+00        15.2562
 P             3             0.00        0.75931517673518E+00        20.6620
 D             3             0.00        0.12244232958062E+01        33.3183
 F             2             0.00        0.22920435821192E+01        62.3697
 S             5             0.00        0.33274541694695E+01        90.5446
 P             4             0.00        0.46642512103918E+01       126.9207
 F             3             0.00        0.17401159156906E+02       473.5096
 S             6             0.00        0.30455860934223E+04     82874.6143


 Scaled ZORA Orbital Energies of the Core Orbitals:
 ==================================================

 (Note that the atoms are grouped by atomtype, see the labels, and may hence NOT be in input order)

 AtomType  Orbital  Atom                   E (au)                        E (eV)
 --------  -------  ----           --------------------        ----------------
 W           1S        1          -0.25482138824004E+04              -69340.428
             2S        1          -0.43960984780021E+03              -11962.393
             3S        1          -0.10127263228126E+03               -2755.769
             4S        1          -0.20907119428712E+02                -568.912
             2P        1          -0.38417169137868E+03              -10453.844
             3P        1          -0.84864891065853E+02               -2309.291
             4P        1          -0.15541477299623E+02                -422.905
             3D        1          -0.66165082684733E+02               -1800.444
             4D        1          -0.87737511763508E+01                -238.746



 =======================================
 M U L L I K E N   P O P U L A T I O N S
 =======================================
  
 The survey below gives for each atom:
 a) the total charge (Z minus electrons)
 b) the net spin polarization (nr of electrons spin-A minus spin-B)
 c) for each spin the atomic electron valence density (integrated) per L-value.

 Atom              Charge    Spin density          S         P         D         F
 ----              ------    ------------       ------    ------    ------    ------
 1 W              -0.0000                       4.0000    6.0000    4.0000   14.0000

 Populations of individual BAS functions
 ----------------------------------------
 1 W           -0.0024 -0.0016  0.0017  0.0821  0.0004  0.0004  0.0004 -0.0190 -0.0190 -0.0190
                0.1070  0.1070  0.1070  0.0007  0.0011  0.0011  0.0007  0.0011  0.0007  0.0102
                0.0153  0.0153  0.0102  0.0153  0.0102  0.0002  1.3184  0.6637  0.7095  1.0512
                0.1771  0.5899  0.5899  0.5899  1.2256  1.2256  1.2256  0.0879  0.0879  0.0879
                0.2040  0.3059  0.3059  0.2040  0.3059  0.2040  0.2699  0.4048  0.4048  0.2699
                0.4048  0.2699  0.0486  0.0728  0.0728  0.0486  0.0728  0.0486  0.2159  0.4319
                0.4319  0.4319  0.5399  0.4319  0.2159  0.4319  0.4319  0.2159  0.4698  0.9397
                0.9397  0.9397  1.1746  0.9397  0.4698  0.9397  0.9397  0.4698  0.1142  0.2284
                0.2284  0.2284  0.2855  0.2284  0.1142  0.2284  0.2284  0.1142  0.0081  0.0081
                0.0081

 Gross Charges per Atom (Z minus electrons)
 ==========================================
            -0.0000
 Net Total: -0.00000000



 =======================================================================
 Electrostatic potential at the Nuclei due to electrons and other nuclei
 =======================================================================
  
         Atom                  Potential
         ----                  ---------
     1)   W                 545.46052106
 
 
 ========================
 No memory problems found
 ========================
 
 Maximum number of active allocate calls:         487
 
 *******************************************************************************

                             A D F   E X I T
 NORMAL TERMINATION



 =================
 Timing Statistics
 =================
  
 Total Used :                     CPU=        1.20      System=        0.04     Elapsed=        1.28

 Calls  Section                     ( Mean, Percentage )
 ---------------------------------------------------------------------------------------------------
     3  ><      ................      0.00    0.33             0.00    0.00             0.00    0.34
     1  INIT    ................      0.07    5.69             0.00   10.00             0.08    6.07
     1  GEOMET  ................      0.02    1.67             0.00    0.00             0.02    1.86
     1  INPUTA  ................      0.00    0.33             0.00    0.00             0.00    0.29
     1  MAINSY  ................      0.01    1.00             0.00   10.00             0.02    1.60
     1  SYMFIT  ................      0.00    0.00             0.00    0.00             0.00    0.13
     1  CORORT  ................      0.00    0.33             0.00    0.00             0.00    0.15
     1  SYMORB  ................      0.00    0.00             0.00    0.00             0.00    0.08
     1  CLSMAT  ................      0.01    0.67             0.00    0.00             0.01    0.53
     1  ORTHON  ................      0.00    0.33             0.00    0.00             0.01    0.48
     1  GENPT   ................      0.02    1.67             0.00   10.00             0.03    2.03
     1  PTBAS   ................      0.01    0.67             0.00    0.00             0.01    0.57
    15  FOCKY   ................      0.06   77.26             0.00   50.00             0.06   74.73
    15  FOCKTR  ................      0.00    1.00             0.00    0.00             0.00    1.01
    15  SDIIS   ................      0.00    2.68             0.00    0.00             0.00    3.39
     1  COREPS  ................      0.05    4.35             0.01   20.00             0.06    4.75
     1  POPAN   ................      0.01    0.67             0.00    0.00             0.01    0.51
     1  DEBYE   ................      0.00    0.00             0.00    0.00             0.00    0.19
     1  EXIT PROCEDURE .........      0.02    1.34             0.00    0.00             0.02    1.30


 Currently Open Files (EXIT00)
 ====================

 Unit    Access Format  Status   Type       Ident (file)
 -------------------------------------------------------
   3      SEQ    FORM   TRANSP  NORMAL      LOGFILE
                                          ( logfile )

 ***************************************************************************************************
 (LOGFILE)
 <Oct09-2020> <12:51:31>  DIRAC 2019  RunTime: Oct09-2020 12:51:31  Nodes: 1  Procs: 1
 <Oct09-2020> <12:51:31>  NORMAL TERMINATION
 <Oct09-2020> <12:51:31>  END
 <Oct09-2020> <12:51:31>  ADF 2019  RunTime: Oct09-2020 12:51:31  Nodes: 1  Procs: 1
 <Oct09-2020> <12:51:31>  Hydrogen (TZP)
 <Oct09-2020> <12:51:31>  RunType   : CREATE
 <Oct09-2020> <12:51:31>  Net Charge: 0 (Nuclei minus Electrons)
 <Oct09-2020> <12:51:31>  Symmetry  : ATOM
  Coordinates
    Atom         X           Y           Z   (Angstrom)
    1.H         0.000000    0.000000    0.000000
 <Oct09-2020> <12:51:31>  >>>> CORORT
 <Oct09-2020> <12:51:31>  >>>> CLSMAT
 <Oct09-2020> <12:51:31>  >>>> ORTHON
 <Oct09-2020> <12:51:31>  >>>> GENPT
 <Oct09-2020> <12:51:31>  Block Length=  64
 <Oct09-2020> <12:51:31>  >>>> PTBAS
 <Oct09-2020> <12:51:31>  >>>> CYCLE
 <Oct09-2020> <12:51:31>              |Error|         MaxErr       Wt(A-DIIS)
 <Oct09-2020> <12:51:31>      1      0.00000000      0.00000000
 <Oct09-2020> <12:51:31>      2      0.03153787      0.03011049
 <Oct09-2020> <12:51:31>      3      0.00861799      0.00834303    100.0
 <Oct09-2020> <12:51:31>      4      0.00173235      0.00171862      0.7
 <Oct09-2020> <12:51:31>      5      0.00004367      0.00003977      0.0
 <Oct09-2020> <12:51:31>      6      0.00000238      0.00000216      0.0
 <Oct09-2020> <12:51:31>      7      0.00000001      0.00000001      0.0
 <Oct09-2020> <12:51:31>  SCF converged
 <Oct09-2020> <12:51:31>      8      0.00000000      0.00000000      0.0
 <Oct09-2020> <12:51:31>  >>>> POPAN
 <Oct09-2020> <12:51:31>  >>>> DEBYE
 <Oct09-2020> <12:51:31>  NORMAL TERMINATION
 <Oct09-2020> <12:51:31>  END
 <Oct09-2020> <12:51:31>  DIRAC 2019  RunTime: Oct09-2020 12:51:31  Nodes: 1  Procs: 1
 <Oct09-2020> <12:51:32>  NORMAL TERMINATION
 <Oct09-2020> <12:51:32>  END
 <Oct09-2020> <12:51:32>  ADF 2019  RunTime: Oct09-2020 12:51:32  Nodes: 1  Procs: 1
 <Oct09-2020> <12:51:32>  Tungsten (TZP, 4d frozen)
 <Oct09-2020> <12:51:32>  RunType   : CREATE
 <Oct09-2020> <12:51:32>  Net Charge: 0 (Nuclei minus Electrons)
 <Oct09-2020> <12:51:32>  Symmetry  : ATOM
  Coordinates
    Atom         X           Y           Z   (Angstrom)
    1.W         0.000000    0.000000    0.000000
 <Oct09-2020> <12:51:32>  >>>> CORORT
 <Oct09-2020> <12:51:32>  >>>> CLSMAT
 <Oct09-2020> <12:51:32>  >>>> ORTHON
 <Oct09-2020> <12:51:32>  >>>> GENPT
 <Oct09-2020> <12:51:32>  Block Length=  73
 <Oct09-2020> <12:51:32>  >>>> PTBAS
 <Oct09-2020> <12:51:32>  >>>> CYCLE
 <Oct09-2020> <12:51:32>              |Error|         MaxErr       Wt(A-DIIS)
 <Oct09-2020> <12:51:32>      1      0.00000000      0.00000000
 <Oct09-2020> <12:51:33>      2     40.90708283      9.97740212    100.0
 <Oct09-2020> <12:51:33>      3     22.13776681      7.95655062    100.0
 <Oct09-2020> <12:51:33>      4     11.31925821      3.38837877    100.0
 <Oct09-2020> <12:51:33>      5      6.46835280      2.22297464    100.0
 <Oct09-2020> <12:51:33>      6      2.47249642      0.77035507    100.0
 <Oct09-2020> <12:51:33>      7      1.32688857      0.40987742    100.0
 <Oct09-2020> <12:51:33>      8      0.41726555      0.12310398    100.0
 <Oct09-2020> <12:51:33>      9      0.43634466      0.13597797    100.0
 <Oct09-2020> <12:51:33>     10      0.06429002      0.02168356     20.9
 <Oct09-2020> <12:51:33>     11      0.01986224      0.00661453      5.7
 <Oct09-2020> <12:51:33>     12      0.00170437      0.00055770      0.0
 <Oct09-2020> <12:51:33>     13      0.00001164      0.00000309      0.0
 <Oct09-2020> <12:51:33>     14      0.00000001      0.00000000      0.0
 <Oct09-2020> <12:51:33>  SCF converged
 <Oct09-2020> <12:51:33>     15      0.00000000      0.00000000      0.0
 <Oct09-2020> <12:51:33>  >>>> POPAN
 <Oct09-2020> <12:51:33>  >>>> DEBYE
 <Oct09-2020> <12:51:33>  NORMAL TERMINATION
 <Oct09-2020> <12:51:33>  END

 *******************************************************************************
 *                                                                             *
 *  -------------------------------------                                      *
 *   Amsterdam Density Functional  (ADF)         2019                          *
 *  -------------------------------------                                      *
 *                                               r79301 2019-11-09             *
 *                                                                             *
 *                                                                             *
 *                            =====================                            *
 *                            |                   |                            *
 *                            |     D I R A C     |                            *
 *                            |                   |                            *
 *                            =====================                            *
 *                                                                             *
 *                                                                             *
 *   Online information and documentation:  https://www.scm.com/support/       *
 *   E-mail:  support@scm.com   info@scm.com                                   *
 *                                                                             *
 *   Scientific publications using ADF results must be properly referenced     *
 *   See the User Manuals (or the web site) for recommended citations          *
 *   The terms and conditions of the End User License Agreement apply to       *
 *   the use of ADF, https://www.scm.com/license-terms/                        *
 *                                                                             *
 **********************  x86_64_linux_intel / intelmpi  ************************
 
 
 
  
 DIRAC 2019  RunTime: Oct09-2020 12:51:33  Nodes: 1  Procs: 1

 Temporary files are created in /scratch/kid_0.486703338 (0x58465342)

1
 OXYGEN ATOM 1s CORE RELATIVISTIC, Point Nuc, A and c from li
 N J RN H ZN XION ANUC CLIGHT
 5000    4100.00000000197.36710137  8.00000000  0.00000000   15.994914  0.1370360E+03
  PH   PHI     EPS        DEL        DELRVR
  0.30  0.30     2500.00  0.00001000  0.00001000
 IDIRC  NC1  NDEBU NPRIN  IPUN IRCOR IWCOR
   1   300     0     0     0     0     1
   XALPHA      XLATTER      RNUC
  0.70000000  0.00000000  0.00000000 Point Charge
   XN   XL   XJ      XE          XZ      XDELL
  1.0  0.0  0.5      -5.000       2.000     0.00000
  2.0  0.0  0.5      -1.000       2.000     0.00000
  2.0  1.0  0.5      -1.000       2.000     0.00000
  2.0  1.0  1.5      -1.000       2.000     0.00000
 ICORP=  0  NPCL=  0  DEMP=0.00  PEPS=0.000000
 R(1)=  0.1000000E-08 D=  0.1005080E+01 RNUC=  0.0000000E+00
 converged at cycle   28  DENSITY AVERAGING    0.2400
  MAXIMUM ERROR IN R.V(R) IS   0.81125670E-05
 Q,EY,EV,EZ,ESUM,ETOT,RHO  0.800000E+01 -0.101247E+02 -0.114961E+03 -0.177573E+03 -0.405053E+02 -0.743427E+02  0.414766E-14


 DIRAC CALCULATION
1                    OXYGEN ATOM 1s CORE RELATIVISTIC, Point Nuc, A and c from libtc


 EXCHANGE COEFFICIENT=  0.7000000           TAIL CORRECTION=  0.           NUCLEAR RADIUS=  0.000E+00
0                       ORBITAL    N    L    J     ELECTRONS     EIGENVALUE                DELTA OF EIGENV.

                          1S1/2  1.0  0.0  0.5     2.000       -0.1880014E+02                 0.7264358E-06
                          2S1/2  2.0  0.0  0.5     2.000       -0.8412236E+00                 0.5932752E-05
                          2P1/2  2.0  1.0  0.5     2.000       -0.3063203E+00                 0.5998471E-05
                          2P3/2  2.0  1.0  1.5     2.000       -0.3049609E+00                 0.5986971E-05


                                        NUCLEAR CHARGE=    8.000000
                            INTEGRAL OF CHARGE DENSITY=    8.000000
                           SUM OF THE ORBITAL ENERGIES=    -40.5053
                                          TOTAL ENERGY=    -74.3427
                                        KINETIC ENERGY=     74.4552
                             NUCLEAR ATTRACTION ENERGY=   -177.5730
                             ELECTRON REPULSION ENERGY=     36.3686
                                       EXCHANGE ENERGY=     -7.5935

 *******************************************************************************

                             D I R A C   E X I T
 NORMAL TERMINATION



 =================
 Timing Statistics
 =================
  
 Total Used :                     CPU=        0.10      System=        0.00     Elapsed=        0.11

 Calls  Section                     ( Mean, Percentage )
 ---------------------------------------------------------------------------------------------------
     2  ><      ................      0.00    0.00             0.00    0.00             0.00    0.01
     1  EXIT PROCEDURE .........      0.10  100.00             0.00  100.00             0.11   99.99


 Currently Open Files (EXIT00)
 ====================

 Unit    Access Format  Status   Type       Ident (file)
 -------------------------------------------------------
   3      SEQ    FORM   TRANSP  NORMAL      LOGFILE
                                          ( logfile )
 
Create O   file=TZP-O.1s
XC
  GGA PBE
End
relativistic ZORA
Corepotentials t12.rel
End

 *******************************************************************************
 *                                                                             *
 *  -------------------------------------                                      *
 *   Amsterdam Density Functional  (ADF)         2019                          *
 *  -------------------------------------                                      *
 *                                               r79301 2019-11-09             *
 *                                                                             *
 *                                                                             *
 *                              =================                              *
 *                              |               |                              *
 *                              |     A D F     |                              *
[...]
   41.O        -3.208370   -5.665017    4.634718
   42.O        -3.284062   -0.172477    4.827179
   43.H        -3.245579    0.804737    4.754689
 <Oct09-2020> <13:51:53>  >>>> CORORT
 <Oct09-2020> <13:51:54>  >>>> CLSMAT
 <Oct09-2020> <13:51:54>  >>>> ORTHON
 <Oct09-2020> <13:51:54>  >>>> GENPT
 <Oct09-2020> <13:51:54>  Block Length= 128
 <Oct09-2020> <13:51:54>  >>>> PTBAS
 <Oct09-2020> <13:52:07>  combining surface points...
 <Oct09-2020> <13:52:07>  combining surface points...
 <Oct09-2020> <13:52:07>  combining surface points...
 <Oct09-2020> <13:52:07>  >>>> CYCLE
 <Oct09-2020> <13:52:17>              |Error|         MaxErr       Wt(A-DIIS)
 <Oct09-2020> <13:52:17>      1      0.23194118      0.04355623
 <Oct09-2020> <13:52:23>      2      0.18851360      0.02378967    100.0
 <Oct09-2020> <13:52:30>      3      0.09301719      0.01552047    100.0
 <Oct09-2020> <13:52:37>      4      0.19718046      0.02429153    100.0
 <Oct09-2020> <13:52:43>      5      0.07197548      0.01366437     12.8
 <Oct09-2020> <13:52:50>      6      0.06842985      0.01235389     11.5
 <Oct09-2020> <13:52:56>      7      0.02624013      0.00224226      1.3
 <Oct09-2020> <13:53:02>      8      0.01741657      0.00146067      0.5
 <Oct09-2020> <13:53:09>      9      0.00570792      0.00059570      0.0
 <Oct09-2020> <13:53:15>     10      0.00310294      0.00038468      0.0
 <Oct09-2020> <13:53:21>     11      0.00148495      0.00017855      0.0
 <Oct09-2020> <13:53:28>     12      0.00049153      0.00004764      0.0
 <Oct09-2020> <13:53:34>     13      0.00049976      0.00006766      0.0
 <Oct09-2020> <13:53:40>     14      0.00018759      0.00002631      0.0
 <Oct09-2020> <13:53:47>     15      0.00017411      0.00001925      0.0
 <Oct09-2020> <13:53:53>     16      0.00002773      0.00000365      0.0
 <Oct09-2020> <13:53:59>     17      0.00000834      0.00000092      0.0
 <Oct09-2020> <13:54:02>  SCF converged
 <Oct09-2020> <13:54:05>     18      0.00001096      0.00000122      0.0
 <Oct09-2020> <13:54:08>  >>>> TOTEN
 <Oct09-2020> <13:54:17>  >>>> POPAN
 <Oct09-2020> <13:54:17>  >>>> DEBYE
 <Oct09-2020> <13:54:17>  >>>> ENGRAD
 <Oct09-2020> <13:54:48>  current energy                              -13.82664305 Hartree
 <Oct09-2020> <13:54:48>  energy change                      -0.00002371     0.00100000    T
 <Oct09-2020> <13:54:48>  constrained gradient max            0.00238066     0.00100000    F
 <Oct09-2020> <13:54:48>  constrained gradient rms            0.00052813     0.00066667    T
 <Oct09-2020> <13:54:48>  gradient max                        0.00238066
 <Oct09-2020> <13:54:48>  gradient rms                        0.00052813
 <Oct09-2020> <13:54:48>  cart. step max                      0.00861916     0.01000000    T
 <Oct09-2020> <13:54:48>  cart. step rms                      0.00163067     0.00666667    T
  Coordinates in Geometry Cycle 21
    Atom         X           Y           Z   (Angstrom)
    1.O         0.021326   -0.006186    0.045526
    2.O         1.726163   -2.753402   -2.453415
    3.W         1.932424   -0.062338    1.392643
    4.W         1.004090    1.599855   -1.348228
    5.W        -1.910568   -0.023786   -1.274846
    6.W        -0.871410    1.711033    1.355858
    7.W         0.943431   -1.720316   -1.309385
    8.O         2.319319    1.312472    0.031731
    9.O        -0.756524    1.342673   -2.098375
   10.O        -2.668716   -1.398220   -0.170426
   11.O         1.150654   -1.436719    2.475667
   12.O        -2.291447    1.281080    0.126835
   13.O         0.774543    1.253062    2.249852
   14.O         2.307820   -1.385228    0.026264
   15.O        -0.783392   -1.356246   -2.115059
   16.O        -1.718043    0.262407    2.567952
   17.O         0.052484    2.691510    0.037184
   18.O         1.551236   -0.027669   -2.165215
   19.O         0.152373   -3.038071   -0.186887
   20.O        -1.509502    3.016008    2.294478
   21.O        -3.220128    0.177131   -2.387451
   22.O         1.709893    2.829870   -2.350974
   23.O         3.437979    0.113118    2.226902
   24.O        -1.573839   -2.658034    2.319210
   25.O        -4.992141   -2.947552    0.031438
   26.W        -2.355108   -1.170669    3.484985
   27.W        -2.525613   -4.404563    3.662440
   28.W        -0.592151   -4.481157    0.860696
   29.W         0.451556   -2.825681    3.604085
   30.W        -3.499062   -2.771107    0.880404
   31.O        -3.072321   -2.782907    4.484928
   32.O        -1.555257   -5.389403    2.253146
   33.O         0.770745   -4.099167    2.191505
   34.O        -0.688114   -1.463938    4.410715
   35.O        -3.825108   -1.431040    2.244099
   36.O        -2.309214   -4.064602    0.069461
   37.O        -0.753724   -4.135432    4.410022
   38.O        -3.841690   -4.104898    2.275293
   39.O         1.776168   -3.031636    4.692112
   40.O        -0.004146   -5.842038   -0.016870
   41.O        -3.209827   -5.665424    4.634610
   42.O        -3.281157   -0.174648    4.826289
   43.H        -3.236959    0.802585    4.760780
 <Oct09-2020> <13:54:48>  >>>> CORORT
 <Oct09-2020> <13:54:49>  >>>> CLSMAT
 <Oct09-2020> <13:54:49>  >>>> ORTHON
 <Oct09-2020> <13:54:49>  >>>> GENPT
 <Oct09-2020> <13:54:49>  Block Length= 128
 <Oct09-2020> <13:54:50>  >>>> PTBAS
 <Oct09-2020> <13:55:03>  combining surface points...
 <Oct09-2020> <13:55:03>  combining surface points...
 <Oct09-2020> <13:55:03>  combining surface points...
 <Oct09-2020> <13:55:03>  >>>> CYCLE
 <Oct09-2020> <13:55:12>              |Error|         MaxErr       Wt(A-DIIS)
 <Oct09-2020> <13:55:12>      1      0.32667025      0.08037846
 <Oct09-2020> <13:55:19>      2      0.18878808      0.02402131    100.0
 <Oct09-2020> <13:55:25>      3      0.08978562      0.01530255    100.0
 <Oct09-2020> <13:55:32>      4      0.18241778      0.02206210    100.0
 <Oct09-2020> <13:55:38>      5      0.08793604      0.01526073     14.4
 <Oct09-2020> <13:55:45>      6      0.06799889      0.01243201     11.5
 <Oct09-2020> <13:55:51>      7      0.02802103      0.00283584      1.9
 <Oct09-2020> <13:55:58>      8      0.01782691      0.00145055      0.5
 <Oct09-2020> <13:56:04>      9      0.00588768      0.00059264      0.0
 <Oct09-2020> <13:56:10>     10      0.00313958      0.00038801      0.0
 <Oct09-2020> <13:56:17>     11      0.00151352      0.00018861      0.0
 <Oct09-2020> <13:56:23>     12      0.00048720      0.00004710      0.0
 <Oct09-2020> <13:56:29>     13      0.00052197      0.00006770      0.0
 <Oct09-2020> <13:56:35>     14      0.00019029      0.00002729      0.0
 <Oct09-2020> <13:56:42>     15      0.00017133      0.00001951      0.0
 <Oct09-2020> <13:56:48>     16      0.00002876      0.00000397      0.0
 <Oct09-2020> <13:56:54>     17      0.00001136      0.00000109      0.0
 <Oct09-2020> <13:57:00>     18      0.00001043      0.00000128      0.0
 <Oct09-2020> <13:57:06>     19      0.00001131      0.00000138      0.0
 <Oct09-2020> <13:57:13>     20      0.00000539      0.00000058      0.0
 <Oct09-2020> <13:57:15>  SCF converged
 <Oct09-2020> <13:57:19>     21      0.00000146      0.00000018      0.0
 <Oct09-2020> <13:57:22>  >>>> TOTEN
 <Oct09-2020> <13:57:31>  >>>> POPAN
 <Oct09-2020> <13:57:31>  >>>> DEBYE
 <Oct09-2020> <13:57:31>  >>>> ENGRAD
 <Oct09-2020> <13:58:02>  current energy                              -13.82666513 Hartree
 <Oct09-2020> <13:58:02>  energy change                      -0.00002208     0.00100000    T
 <Oct09-2020> <13:58:02>  constrained gradient max            0.00161048     0.00100000    F
 <Oct09-2020> <13:58:02>  constrained gradient rms            0.00033758     0.00066667    T
 <Oct09-2020> <13:58:02>  gradient max                        0.00161048
 <Oct09-2020> <13:58:02>  gradient rms                        0.00033758
 <Oct09-2020> <13:58:02>  cart. step max                      0.00263710     0.01000000    T
 <Oct09-2020> <13:58:02>  cart. step rms                      0.00051358     0.00666667    T
  Coordinates in Geometry Cycle 22
    Atom         X           Y           Z   (Angstrom)
    1.O         0.021424   -0.005691    0.045337
    2.O         1.725681   -2.753846   -2.453161
    3.W         1.932146   -0.062146    1.392695
    4.W         1.004420    1.599486   -1.348873
    5.W        -1.910653   -0.023368   -1.274467
    6.W        -0.871449    1.711663    1.356097
    7.W         0.942812   -1.721319   -1.308690
    8.O         2.319204    1.312781    0.031845
    9.O        -0.756778    1.343023   -2.098368
   10.O        -2.668368   -1.398291   -0.170182
   11.O         1.150479   -1.436911    2.475274
   12.O        -2.291594    1.281436    0.127253
   13.O         0.774306    1.253373    2.250134
   14.O         2.307746   -1.385119    0.026013
   15.O        -0.783458   -1.356156   -2.114871
   16.O        -1.718447    0.263107    2.567881
   17.O         0.052457    2.691428    0.037106
   18.O         1.551051   -0.027664   -2.165327
   19.O         0.151668   -3.037378   -0.185824
   20.O        -1.509236    3.017122    2.294349
   21.O        -3.220490    0.177973   -2.386690
   22.O         1.710073    2.829981   -2.351276
   23.O         3.437570    0.113791    2.227100
   24.O        -1.573775   -2.658612    2.319047
   25.O        -4.991634   -2.947882    0.030863
   26.W        -2.355666   -1.170175    3.484435
   27.W        -2.525744   -4.404880    3.662557
   28.W        -0.592242   -4.481572    0.861551
   29.W         0.451201   -2.825740    3.604198
   30.W        -3.498561   -2.772142    0.879941
   31.O        -3.072626   -2.783135    4.484744
   32.O        -1.555699   -5.389762    2.253346
   33.O         0.770958   -4.099575    2.191607
   34.O        -0.689137   -1.464784    4.410030
   35.O        -3.824219   -1.431752    2.244374
   36.O        -2.308973   -4.065310    0.068737
   37.O        -0.753938   -4.135640    4.409902
   38.O        -3.841662   -4.104900    2.275023
   39.O         1.775692   -3.031197    4.692481
   40.O        -0.003388   -5.841698   -0.016555
   41.O        -3.210176   -5.665906    4.634404
   42.O        -3.279611   -0.174440    4.825726
   43.H        -3.234322    0.802555    4.760208
 <Oct09-2020> <13:58:02>  >>>> CORORT
 <Oct09-2020> <13:58:03>  >>>> CLSMAT
 <Oct09-2020> <13:58:03>  >>>> ORTHON
 <Oct09-2020> <13:58:03>  >>>> GENPT
 <Oct09-2020> <13:58:03>  Block Length= 128
 <Oct09-2020> <13:58:03>  >>>> PTBAS
 <Oct09-2020> <13:58:16>  combining surface points...
 <Oct09-2020> <13:58:16>  combining surface points...
 <Oct09-2020> <13:58:16>  combining surface points...
 <Oct09-2020> <13:58:16>  >>>> CYCLE
 <Oct09-2020> <13:58:26>              |Error|         MaxErr       Wt(A-DIIS)
 <Oct09-2020> <13:58:26>      1      0.16196507      0.03834270
 <Oct09-2020> <13:58:32>      2      0.19102794      0.02397411    100.0
 <Oct09-2020> <13:58:39>      3      0.08969808      0.01521896    100.0
 <Oct09-2020> <13:58:46>      4      0.17974631      0.02177597    100.0
 <Oct09-2020> <13:58:52>      5      0.09105846      0.01569369     14.8
 <Oct09-2020> <13:58:58>      6      0.06861998      0.01270924     11.8
 <Oct09-2020> <13:59:05>      7      0.02883615      0.00302631      2.0
 <Oct09-2020> <13:59:11>      8      0.01810188      0.00149882      0.5
 <Oct09-2020> <13:59:18>      9      0.00601663      0.00060196      0.0
 <Oct09-2020> <13:59:24>     10      0.00316635      0.00038829      0.0
 <Oct09-2020> <13:59:30>     11      0.00154088      0.00019480      0.0
 <Oct09-2020> <13:59:37>     12      0.00049747      0.00004790      0.0
 <Oct09-2020> <13:59:43>     13      0.00054411      0.00006805      0.0
 <Oct09-2020> <13:59:49>     14      0.00019587      0.00002770      0.0
 <Oct09-2020> <13:59:56>     15      0.00017860      0.00002026      0.0
 <Oct09-2020> <14:00:02>     16      0.00002989      0.00000424      0.0
 <Oct09-2020> <14:00:08>     17      0.00001264      0.00000120      0.0
 <Oct09-2020> <14:00:14>     18      0.00001111      0.00000137      0.0
 <Oct09-2020> <14:00:20>     19      0.00001349      0.00000159      0.0
 <Oct09-2020> <14:00:26>     20      0.00000632      0.00000068      0.0
 <Oct09-2020> <14:00:29>  SCF converged
 <Oct09-2020> <14:00:33>     21      0.00000165      0.00000020      0.0
 <Oct09-2020> <14:00:36>  >>>> TOTEN
 <Oct09-2020> <14:00:45>  >>>> POPAN
 <Oct09-2020> <14:00:45>  >>>> DEBYE
 <Oct09-2020> <14:00:45>  >>>> ENGRAD
 <Oct09-2020> <14:01:16>  current energy                              -13.82667080 Hartree
 <Oct09-2020> <14:01:16>  energy change                      -0.00000567     0.00100000    T
 <Oct09-2020> <14:01:16>  constrained gradient max            0.00098075     0.00100000    T
 <Oct09-2020> <14:01:16>  constrained gradient rms            0.00025887     0.00066667    T
 <Oct09-2020> <14:01:16>  gradient max                        0.00098075
 <Oct09-2020> <14:01:16>  gradient rms                        0.00025887
 <Oct09-2020> <14:01:16>  cart. step max                      0.00293249     0.01000000    T
 <Oct09-2020> <14:01:16>  cart. step rms                      0.00066245     0.00666667    T
 <Oct09-2020> <14:01:16>  GEOMETRY CONVERGED
 <Oct09-2020> <14:01:16>  Calculating Energy Terms for Final Geometry
  Coordinates in Geometry Cycle 22
    Atom         X           Y           Z   (Angstrom)
    1.O         0.021424   -0.005691    0.045337
    2.O         1.725681   -2.753846   -2.453161
    3.W         1.932146   -0.062146    1.392695
    4.W         1.004420    1.599486   -1.348873
    5.W        -1.910653   -0.023368   -1.274467
    6.W        -0.871449    1.711663    1.356097
    7.W         0.942812   -1.721319   -1.308690
    8.O         2.319204    1.312781    0.031845
    9.O        -0.756778    1.343023   -2.098368
   10.O        -2.668368   -1.398291   -0.170182
   11.O         1.150479   -1.436911    2.475274
   12.O        -2.291594    1.281436    0.127253
   13.O         0.774306    1.253373    2.250134
   14.O         2.307746   -1.385119    0.026013
   15.O        -0.783458   -1.356156   -2.114871
   16.O        -1.718447    0.263107    2.567881
   17.O         0.052457    2.691428    0.037106
   18.O         1.551051   -0.027664   -2.165327
   19.O         0.151668   -3.037378   -0.185824
   20.O        -1.509236    3.017122    2.294349
   21.O        -3.220490    0.177973   -2.386690
   22.O         1.710073    2.829981   -2.351276
   23.O         3.437570    0.113791    2.227100
   24.O        -1.573775   -2.658612    2.319047
   25.O        -4.991634   -2.947882    0.030863
   26.W        -2.355666   -1.170175    3.484435
   27.W        -2.525744   -4.404880    3.662557
   28.W        -0.592242   -4.481572    0.861551
   29.W         0.451201   -2.825740    3.604198
   30.W        -3.498561   -2.772142    0.879941
   31.O        -3.072626   -2.783135    4.484744
   32.O        -1.555699   -5.389762    2.253346
   33.O         0.770958   -4.099575    2.191607
   34.O        -0.689137   -1.464784    4.410030
   35.O        -3.824219   -1.431752    2.244374
   36.O        -2.308973   -4.065310    0.068737
   37.O        -0.753938   -4.135640    4.409902
   38.O        -3.841662   -4.104900    2.275023
   39.O         1.775692   -3.031197    4.692481
   40.O        -0.003388   -5.841698   -0.016555
   41.O        -3.210176   -5.665906    4.634404
   42.O        -3.279611   -0.174440    4.825726
   43.H        -3.234322    0.802555    4.760208
 <Oct09-2020> <14:01:16>  >>>> CORORT
 <Oct09-2020> <14:01:16>  >>>> CLSMAT
 <Oct09-2020> <14:01:16>  >>>> ORTHON
 <Oct09-2020> <14:01:17>  >>>> GENPT
 <Oct09-2020> <14:01:17>  Block Length= 128
 <Oct09-2020> <14:01:17>  >>>> PTBAS
 <Oct09-2020> <14:01:30>  combining surface points...
 <Oct09-2020> <14:01:30>  combining surface points...
 <Oct09-2020> <14:01:30>  combining surface points...
 <Oct09-2020> <14:01:30>  >>>> CYCLE
 <Oct09-2020> <14:01:40>              |Error|         MaxErr       Wt(A-DIIS)
 <Oct09-2020> <14:01:40>      1      0.07823635      0.02666841
 <Oct09-2020> <14:01:46>      2      0.19137065      0.02384004    100.0
 <Oct09-2020> <14:01:54>      3      0.09280982      0.02788816    100.0
 <Oct09-2020> <14:02:00>      4      0.19405426      0.02305493    100.0
 <Oct09-2020> <14:02:07>      5      0.07683322      0.01310261     12.2
 <Oct09-2020> <14:02:13>      6      0.06880872      0.01390651     12.2
 <Oct09-2020> <14:02:19>      7      0.02829317      0.00250393      1.5
 <Oct09-2020> <14:02:26>      8      0.01777415      0.00180733      0.8
 <Oct09-2020> <14:02:32>      9      0.00587421      0.00056681      0.0
 <Oct09-2020> <14:02:39>     10      0.00312895      0.00036823      0.0
 <Oct09-2020> <14:02:45>     11      0.00151616      0.00017596      0.0
 <Oct09-2020> <14:02:51>     12      0.00049975      0.00006091      0.0
 <Oct09-2020> <14:02:57>     13      0.00053259      0.00007060      0.0
 <Oct09-2020> <14:03:04>     14      0.00019325      0.00002442      0.0
 <Oct09-2020> <14:03:10>     15      0.00017789      0.00001928      0.0
 <Oct09-2020> <14:03:16>     16      0.00002800      0.00000341      0.0
 <Oct09-2020> <14:03:22>     17      0.00000911      0.00000104      0.0
 <Oct09-2020> <14:03:28>     18      0.00001053      0.00000112      0.0
 <Oct09-2020> <14:03:35>     19      0.00000611      0.00000076      0.0
 <Oct09-2020> <14:03:37>  SCF converged
 <Oct09-2020> <14:03:41>     20      0.00000348      0.00000044      0.0
 <Oct09-2020> <14:03:46>  >>>> TOTEN
 <Oct09-2020> <14:04:11>  QTAIM: determining topology...
 <Oct09-2020> <14:04:32>  >>>> POPAN
 <Oct09-2020> <14:04:32>  >>>> DEBYE
 <Oct09-2020> <14:04:32>  >>>> AMETS
 <Oct09-2020> <14:04:32>  >>>> POPUL
 <Oct09-2020> <14:04:33>   Bond Energy         -13.82667080 a.u.
 <Oct09-2020> <14:04:33>   Bond Energy        -376.24285572 eV
 <Oct09-2020> <14:04:33>   Bond Energy       -8676.37       kcal/mol
 <Oct09-2020> <14:04:33>  >>>> ENHESS
 <Oct09-2020> <14:05:41>  === NUCLEUS:     1
 <Oct09-2020> <14:13:35>  === NUCLEUS:     2
 <Oct09-2020> <14:20:53>  === NUCLEUS:     3
 <Oct09-2020> <14:28:29>  === NUCLEUS:     4
 <Oct09-2020> <14:36:04>  === NUCLEUS:     5
 <Oct09-2020> <14:43:40>  === NUCLEUS:     6
 <Oct09-2020> <14:51:24>  === NUCLEUS:     7
 <Oct09-2020> <14:59:00>  === NUCLEUS:     8
 <Oct09-2020> <15:06:35>  === NUCLEUS:     9
 <Oct09-2020> <15:14:11>  === NUCLEUS:    10
 <Oct09-2020> <15:21:46>  === NUCLEUS:    11
 <Oct09-2020> <15:29:04>  === NUCLEUS:    12
 <Oct09-2020> <15:36:30>  === NUCLEUS:    13
 <Oct09-2020> <15:44:05>  === NUCLEUS:    14
 <Oct09-2020> <15:51:50>  === NUCLEUS:    15
 <Oct09-2020> <15:59:08>  === NUCLEUS:    16
 <Oct09-2020> <16:06:35>  === NUCLEUS:    17
 <Oct09-2020> <16:13:53>  === NUCLEUS:    18
 <Oct09-2020> <16:21:11>  === NUCLEUS:    19
 <Oct09-2020> <16:28:30>  === NUCLEUS:    20
 <Oct09-2020> <16:35:49>  === NUCLEUS:    21
 <Oct09-2020> <16:43:26>  === NUCLEUS:    22
 <Oct09-2020> <16:50:45>  === NUCLEUS:    23
 <Oct09-2020> <16:58:22>  === NUCLEUS:    24
 <Oct09-2020> <17:06:00>  === NUCLEUS:    25
 <Oct09-2020> <17:13:37>  === NUCLEUS:    26
 <Oct09-2020> <17:21:15>  === NUCLEUS:    27
 <Oct09-2020> <17:28:52>  === NUCLEUS:    28
 <Oct09-2020> <17:36:29>  === NUCLEUS:    29
 <Oct09-2020> <17:43:58>  === NUCLEUS:    30
 <Oct09-2020> <17:51:26>  === NUCLEUS:    31
 <Oct09-2020> <17:58:54>  === NUCLEUS:    32
 <Oct09-2020> <18:06:22>  === NUCLEUS:    33
 <Oct09-2020> <18:14:19>  === NUCLEUS:    34
 <Oct09-2020> <18:22:25>  === NUCLEUS:    35
 <Oct09-2020> <18:30:31>  === NUCLEUS:    36
 <Oct09-2020> <18:38:20>  === NUCLEUS:    37
 <Oct09-2020> <18:46:26>  === NUCLEUS:    38
 <Oct09-2020> <18:54:14>  === NUCLEUS:    39
 <Oct09-2020> <19:02:20>  === NUCLEUS:    40
 <Oct09-2020> <19:10:17>  === NUCLEUS:    41
 <Oct09-2020> <19:18:15>  === NUCLEUS:    42
 <Oct09-2020> <19:26:12>  === NUCLEUS:    43
 <Oct09-2020> <19:33:11>  >>>> CALC_HESS_PMAT
 <Oct09-2020> <19:36:07>  >>>> CALC_HESS_WMAT
 <Oct09-2020> <19:36:37>  NORMAL TERMINATION
 <Oct09-2020> <19:36:37>  END
