 *******************************************************************************
 *                                                                             *
 *  -------------------------------------                                      *
 *   Amsterdam Density Functional  (ADF)         2019                          *
 *  -------------------------------------                                      *
 *                                               r79301 2019-11-09             *
 *                                                                             *
 *                                                                             *
 *                            =====================                            *
 *                            |                   |                            *
 *                            |     D I R A C     |                            *
 *                            |                   |                            *
 *                            =====================                            *
 *                                                                             *
 *                                                                             *
 *   Online information and documentation:  https://www.scm.com/support/       *
 *   E-mail:  support@scm.com   info@scm.com                                   *
 *                                                                             *
 *   Scientific publications using ADF results must be properly referenced     *
 *   See the User Manuals (or the web site) for recommended citations          *
 *   The terms and conditions of the End User License Agreement apply to       *
 *   the use of ADF, https://www.scm.com/license-terms/                        *
 *                                                                             *
 **********************  x86_64_linux_intel / intelmpi  ************************
 
  
 DIRAC 2019  RunTime: Dec11-2023 10:56:58  Nodes: 1  Procs: 1

 Temporary files are created in /scratch/kid_0.51297429 (0x58465342)

1
 HYDROGEN ATOM RELATIVISTIC, Point Nuc, A and c from libtc   
 N J RN H ZN XION ANUC CLIGHT
 5000    1100.00000000197.36710137  1.00000000  0.00000000    1.007825  0.1370360E+03
  PH   PHI     EPS        DEL        DELRVR
  0.30  0.30     2500.00  0.00001000  0.00001000
 IDIRC  NC1  NDEBU NPRIN  IPUN IRCOR IWCOR
   1   300     0     0     0     0     0
   XALPHA      XLATTER      RNUC
  0.70000000  0.00000000  0.00000000 Point Charge
   XN   XL   XJ      XE          XZ      XDELL
  1.0  0.0  0.5      -1.000       1.000     0.00000
 ICORP=  0  NPCL=  0  DEMP=0.00  PEPS=0.000000
 R(1)=  0.1000000E-08 D=  0.1005080E+01 RNUC=  0.0000000E+00
 converged at cycle   32  DENSITY AVERAGING    0.2400
  MAXIMUM ERROR IN R.V(R) IS   0.79874357E-05
 Q,EY,EV,EZ,ESUM,ETOT,RHO  0.100000E+01 -0.266614E+00 -0.619969E+00 -0.910779E+00 -0.203940E+00 -0.415998E+00  0.337036E-17


 DIRAC CALCULATION
1                    HYDROGEN ATOM RELATIVISTIC, Point Nuc, A and c from libtc


 EXCHANGE COEFFICIENT=  0.7000000           TAIL CORRECTION=  0.           NUCLEAR RADIUS=  0.000E+00
0                       ORBITAL    N    L    J     ELECTRONS     EIGENVALUE                DELTA OF EIGENV.

                          1S1/2  1.0  0.0  0.5     1.000       -0.2039397E+00                 0.2720093E-06


                                        NUCLEAR CHARGE=    1.000000
                            INTEGRAL OF CHARGE DENSITY=    1.000000
                           SUM OF THE ORBITAL ENERGIES=     -0.2039
                                          TOTAL ENERGY=     -0.4160
                                        KINETIC ENERGY=      0.4160
                             NUCLEAR ATTRACTION ENERGY=     -0.9108
                             ELECTRON REPULSION ENERGY=      0.2787
                                       EXCHANGE ENERGY=     -0.2000

 *******************************************************************************

                             D I R A C   E X I T
 NORMAL TERMINATION



 =================
 Timing Statistics
 =================
  
 Total Used :                     CPU=        0.06      System=        0.00     Elapsed=        0.07

 Calls  Section                     ( Mean, Percentage )
 ---------------------------------------------------------------------------------------------------
     2  ><      ................      0.00    0.00             0.00    0.00             0.00    0.01
     1  EXIT PROCEDURE .........      0.06  100.00             0.00    0.00             0.07   99.99


 Currently Open Files (EXIT00)
 ====================

 Unit    Access Format  Status   Type       Ident (file)
 -------------------------------------------------------
   3      SEQ    FORM   TRANSP  NORMAL      LOGFILE
                                          ( logfile )
 
Create H   file=TZP-H
XC
  GGA PBE
End
relativistic ZORA
Corepotentials t12.rel
End

 *******************************************************************************
 *                                                                             *
 *  -------------------------------------                                      *
 *   Amsterdam Density Functional  (ADF)         2019                          *
 *  -------------------------------------                                      *
 *                                               r79301 2019-11-09             *
 *                                                                             *
 *                                                                             *
 *                              =================                              *
 *                              |               |                              *
 *                              |     A D F     |                              *
 *                              |               |                              *
 *                              =================                              *
 *                                                                             *
 *                                                                             *
 *   Online information and documentation:  https://www.scm.com/support/       *
 *   E-mail:  support@scm.com   info@scm.com                                   *
 *                                                                             *
 *   Scientific publications using ADF results must be properly referenced     *
 *   See the User Manuals (or the web site) for recommended citations          *
 *   The terms and conditions of the End User License Agreement apply to       *
 *   the use of ADF, https://www.scm.com/license-terms/                        *
 *                                                                             *
 **********************  x86_64_linux_intel / intelmpi  ************************
 
  
 ADF 2019  RunTime: Dec11-2023 10:56:59  Nodes: 1  Procs: 1

 Temporary files are created in /scratch/kid_0.472575892 (0x58465342)

 Hydrogen (TZP)



 ===========================
 A T T A C H E D   F I L E S
 ===========================
  
 CREATE - Data File:    TZP-H
                        Hydrogen (TZP)
 Core Potentials:
         file : t12.rel



 ===============================
 M O D E L   P A R A M E T E R S
 ===============================
  
 DENSITY FUNCTIONAL POTENTIAL (scf)
    LDA:                               PW92                                    == Not Default ==
    Gradient Corrections:              PBEc PBEx                               == Not Default ==

 SPIN  (restricted / unrestr.)
    Molecule:                          Restricted                               

 OTHER ASPECTS
    Relativistic Corrections:          scalar (ZORA,MAPA)                      == Not Default ==

    Nuclear Charge Density Model:      Point Charge Nuclei                      
    Core Treatment:                    Frozen Orbital(s)                        

    Hyperfine or Zeeman Interaction:   ---                                      



 =====================================
 S Y M M E T R Y ,   E L E C T R O N S
 =====================================
  
 Symmetry: ATOM

 Irreducible Representations, including subspecies
 -------------------------------------------------
 S
 P:x  P:y  P:z
 D:z2  D:x2-y2  D:xy  D:xz  D:yz
 F:z3  F:z  F:xyz  F:z2x  F:z2y  F:x  F:y


 Configuration of Valence Electrons
 ==================================

          Occupation Numbers
          -------------------------------------------------
 S        1
 P        0
 D        0
 F        0
          -------------------------------------------------

 Total:   1

 Net Charge: 0 (Nuclei minus Electrons)

 Preset values for MO occupations will be applied through SCF cycle no. 1000000
 Thereafter, the program will assign electrons to MOs that are spatially
 similar to the occupied MOs in a "reference" cycle ("KeepOrbitals").
 The reference cycle is always the PREVIOUS cycle: it will evolve with
 the SCF procedure.



 ================================
 (Slater-type)  F U N C T I O N S  ***  (Basis and Fit)  ***
 ================================
  

 Atom Type    1  (H)
 ==============

 Valence Basis Sets:   4
 -----------------------
   1 S    0.690000
   1 S    0.920000
   1 S    1.580000
   2 P    1.250000


 BAS: List of all Elementary Cartesian Basis Functions
 =====================================================

 The numbering in the list below (to the right of the function characteristics) is referred
 to in print-outs of MO eigenvectors and Mulliken populations in the BAS representation
 (as contrasted to the SFO representation).

 Notes:
 1. The functions are characterized by a polynomial prefactor (powers of x,y,z and r) and
    an exponential decay factor alpha.
 2. Since the basis sets are specific for an atom TYPE, the individual functions occur on
    all atoms of that type.
 3. The word 'Core' in the left margin signals that it is a Core Function (CF) : not a
    degree of freedom in the valence set, but only used to ensure orthogonalization of
    the other valence basis functions on the frozen Core Orbitals.


 (power of) X  Y  Z  R     Alpha  on Atom
            ==========     =====     ==========

 H                                    1
                                  ---------------------------------------------------------------------------
            0  0  0  0     0.690      1
            0  0  0  0     0.920      2
            0  0  0  0     1.580      3
            1  0  0  0     1.250      4
            0  1  0  0     1.250      5
            0  0  1  0     1.250      6

 Total number of charge fitting functions (nprimf)        50
 Total number of Cartesian basis functions (naos)          6
 Total number of Cartesian core functions  (ncos)          0



 BAS: List of all Elementary Cartesian Basis Functions
 =====================================================

 The numbering in the list below (to the right of the function characteristics) is referred
 to in print-outs of MO eigenvectors and Mulliken populations in the BAS representation
 (as contrasted to the SFO representation).

 Notes:
 1. The functions are characterized by a polynomial prefactor (powers of x,y,z and r) and
    an exponential decay factor alpha.
 2. Since the basis sets are specific for an atom TYPE, the individual functions occur on
    all atoms of that type.
 3. The word 'Core' in the left margin signals that it is a Core Function (CF) : not a
    degree of freedom in the valence set, but only used to ensure orthogonalization of
    the other valence basis functions on the frozen Core Orbitals.


 (power of) X  Y  Z  R     Alpha  on Atom
            ==========     =====     ==========

 H                                    1
                                  ---------------------------------------------------------------------------
            0  0  0  0     0.690      1
            0  0  0  0     0.920      2
            0  0  0  0     1.580      3
            1  0  0  0     1.250      4
            0  1  0  0     1.250      5
            0  0  1  0     1.250      6
1
 ***************************************************************************************************



                                              ***********************
                                              *  T E C H N I C A L  *
                                              ***********************
  



 =============================================================
 P A R A L L E L I Z A T I O N  and  V E C T O R I Z A T I O N
 =============================================================
  
 Nr of parallel processes:                                1
 Maximum vector length in NumInt loops:                 128



 =====================
 S C F   U P D A T E S
 =====================
  
 Max. nr. of cycles:                               300
 Convergence criterion:                              0.0000000100
   secondary criterion:                              0.0000000100

 Mix parameter (when DIIS does not apply):           0.2000000000
 Special mix parameter for the first cycle:          1.0000000000
 Mixed ADIIS+SDIIS will be used                  
    Max number of expansion vectors:                10
    Pure ADIIS when Max([F,P]) is above              0.1000000000
    Pure SDIIS when Max([F,P]) is below              0.0010000000
 Automatic ElectronSmearing (in case of problematic SCF convergence) disabled



 =================
 P R E C I S I O N  ***  (General: NumInt, NeglectFunctionTails, ...)  ***
 =================
  

 NumInt:           Target precision:                12.0000000000
 -------           Initial precision:               10.0000000000
                   Min. precision (optimization):   10.0000000000

 Neglect Functions:          Basis functions:        0.1000000000E-13
 ------------------          Fit functions:          0.1000000000E-13



 ===========================
 L I N E A R   S C A L I N G
 ===========================
  

 Cut-off radii density fit:                        0.1000000000E-97
 Overlap cut-off criterion AO matrix elements:     0.1000000000E-97
 Cut-offs for Coulomb potential and fitted density:0.1000000000E-97
 Cut-off criterion for Coulomb multipole terms:    0.1000000000E-97
 Progressive Convergence parameter:                 0.000000000    
1
 ***************************************************************************************************



                                            ***************************
                                            *  C O M P U T A T I O N  *
                                            ***************************
  

 Number of elements of the density matrix on this node (used, total):        21        21



 ===========================================
 Numerical Integration : Fuzzy Cells (Becke)
 ===========================================
  
 Becke grid quality: VERYGOOD       
  
 Lebedev angular grid order:             min:  13 max:  41
 Nr. of radial points:                   min:  64 max:  64

 Total nr. of points:         64
 Nr. of blocks:                1
 Block length:                64
 Nr. of dummy points:          0


 Test of Precision of the Numerical Integration Grid
 ===================================================

 Integral of the Total Core Density:                   0.00000000000000



 ========================
 Density Fitting (zlmFit)
 ========================
  
 ZlmFit Fit Quality: VERYGOOD       
  
 Max L-expansion:                        min:   0 max:   0
 Nr. of radial interpolation points:     min: 120 max: 120



 =====
 S C F  ***  ScaSCF  ***
 =====
  

 CYCLE    1
 SCF Error: norm([F,P])=      0.000000000000, max([F,P])=      0.000000000000
 orbitals (Q,E):
 ---------------
 S :1...3            ( 1.00    -0.5000)  ( 0.00    -0.0900)  ( 0.00     1.2936)
 P :1...1            ( 0.00     0.1562)

 CYCLE    2
 SCF Error: norm([F,P])=      0.031537872292, max([F,P])=      0.030110494752
 orbitals (Q,E):
 ---------------
 S :1...2            ( 1.00    -0.2218)  ( 0.00     0.1019)
 P :1...1            ( 0.00     0.4189)

 CYCLE    3
  SDIIS (wt  0.000):  0.1996  0.8004
 A-DIIS (wt  1.000):  0.0000  1.0000
  DIIS coefficients:  0.0000  1.0000
 SCF Error: norm([F,P])=      0.008617989401, max([F,P])=      0.008343029399
 orbitals (Q,E):
 ---------------
 S :1...2            ( 1.00    -0.2422)  ( 0.00     0.0889)
 P :1...1            ( 0.00     0.4024)

 CYCLE    4
  SDIIS (wt  0.993):  0.1666  0.8334
 A-DIIS (wt  0.007):  0.0000  1.0000
  DIIS coefficients:  0.1654  0.8346
 SCF Error: norm([F,P])=      0.001732350026, max([F,P])=      0.001718616814
 orbitals (Q,E):
 ---------------
 S :1...2            ( 1.00    -0.2385)  ( 0.00     0.0908)
 P :1...1            ( 0.00     0.4054)

 CYCLE    5
  SDIIS (wt  1.000):  0.0236  0.9764
  DIIS coefficients:  0.0236  0.9764
 SCF Error: norm([F,P])=      0.000043673449, max([F,P])=      0.000039769875
 orbitals (Q,E):
 ---------------
 S :1...2            ( 1.00    -0.2386)  ( 0.00     0.0908)
 P :1...1            ( 0.00     0.4054)

 CYCLE    6
  SDIIS (wt  1.000): -0.0577  1.0577
  DIIS coefficients: -0.0577  1.0577
 SCF Error: norm([F,P])=      0.000002383805, max([F,P])=      0.000002158128
 orbitals (Q,E):
 ---------------
 S :1...2            ( 1.00    -0.2386)  ( 0.00     0.0908)
 P :1...1            ( 0.00     0.4054)

 CYCLE    7
  SDIIS (wt  1.000): -0.0032  1.0032
  DIIS coefficients: -0.0032  1.0032
 SCF Error: norm([F,P])=      0.000000007721, max([F,P])=      0.000000007228
 orbitals (Q,E):
 ---------------
 S :1...2            ( 1.00    -0.2386)  ( 0.00     0.0908)
 P :1...1            ( 0.00     0.4054)

 SCF CONVERGED

 CYCLE    8
1
 ***************************************************************************************************



                                                *******************
                                                *  R E S U L T S  *
                                                *******************
  
 *** Using FIT density in Focky
  SDIIS (wt  1.000):  0.0192  0.9808
  DIIS coefficients:  0.0192  0.9808
 SCF Error: norm([F,P])=      0.000000000151, max([F,P])=      0.000000000141

 Scaled ZORA Orbital Energies, per Irrep and Spin:
 =================================================
                        Occup              E (au)              E (eV)       Diff (eV) with prev. cycle
                        -----      --------------------        ------       --------------------------
 S
               1        1.000     -0.23861775226993E+00        -6.493               7.43E-09
               2        0.000      0.90791701709251E-01         2.471
               3        0.000      0.15217530108908E+01        41.409
 P
               1        0.000      0.40537978060393E+00        11.031


 Partially Occupied:
               1 S                -0.23861775226993E+00
  
 LUMO :        2 S                 0.90791701709251E-01
  


 Orbital Energies, all Irreps
 ========================================

 Irrep        no.  (spin)   Occup              E (au)                E (eV)
 ---------------------------------------------------------------------------
 S             1             1.00       -0.23861775226993E+00        -6.4931
 S             2             0.00        0.90791701709251E-01         2.4706
 P             1             0.00        0.40537978060393E+00        11.0309
 S             3             0.00        0.15217530108908E+01        41.4090


 All Electron Calculation, thus no Orbital Energies of the Core Orbitals are calculated



 =======================================
 M U L L I K E N   P O P U L A T I O N S
 =======================================
  
 The survey below gives for each atom:
 a) the total charge (Z minus electrons)
 b) the net spin polarization (nr of electrons spin-A minus spin-B)
 c) for each spin the atomic electron valence density (integrated) per L-value.

 Atom              Charge    Spin density          S         P         D         F
 ----              ------    ------------       ------    ------    ------    ------
 1 H              -0.0000                       1.0000    0.0000    0.0000    0.0000

 Populations of individual BAS functions
 ----------------------------------------
 1 H            0.2104  0.6788  0.1107  0.0000  0.0000  0.0000

 Gross Charges per Atom (Z minus electrons)
 ==========================================
            -0.0000
 Net Total: -0.00000000



 =======================================================================
 Electrostatic potential at the Nuclei due to electrons and other nuclei
 =======================================================================
  
         Atom                  Potential
         ----                  ---------
     1)   H                   0.94468022
 
 
 ========================
 No memory problems found
 ========================
 
 Maximum number of active allocate calls:         306
 
 *******************************************************************************

                             A D F   E X I T
 NORMAL TERMINATION



 =================
 Timing Statistics
 =================
  
 Total Used :                     CPU=        0.33      System=        0.02     Elapsed=        2.35

 Calls  Section                     ( Mean, Percentage )
 ---------------------------------------------------------------------------------------------------
     3  ><      ................      0.00    0.00             0.00   16.67             0.00    0.48
     1  INIT    ................      0.06   19.28             0.01   50.00             1.50   63.75
     1  GEOMET  ................      0.02    4.82             0.00   16.67             0.44   18.90
     1  INPUTA  ................      0.00    1.20             0.00    0.00             0.01    0.29
     1  MAINSY  ................      0.01    2.41             0.00    0.00             0.10    4.17
     1  SYMFIT  ................      0.00    0.00             0.00    0.00             0.01    0.45
     1  CORORT  ................      0.00    1.20             0.00    0.00             0.00    0.05
     1  SYMORB  ................      0.00    0.00             0.00    0.00             0.00    0.03
     1  CLSMAT  ................      0.00    1.20             0.00    0.00             0.01    0.22
     1  ORTHON  ................      0.00    1.20             0.00    0.00             0.00    0.20
     1  GENPT   ................      0.01    3.61             0.00    0.00             0.01    0.53
     1  PTBAS   ................      0.00    1.20             0.00    0.00             0.01    0.22
     8  FOCKY   ................      0.02   45.78             0.00   16.67             0.02    7.23
     8  FOCKTR  ................      0.00    2.41             0.00    0.00             0.00    0.20
     8  SDIIS   ................      0.00    7.23             0.00    0.00             0.01    1.81
     1  COREPS  ................      0.01    3.61             0.00    0.00             0.01    0.59
     1  POPAN   ................      0.00    1.20             0.00    0.00             0.00    0.20
     1  DEBYE   ................      0.00    0.00             0.00    0.00             0.00    0.08
     1  EXIT PROCEDURE .........      0.01    3.61             0.00    0.00             0.01    0.59


 Currently Open Files (EXIT00)
 ====================

 Unit    Access Format  Status   Type       Ident (file)
 -------------------------------------------------------
   3      SEQ    FORM   TRANSP  NORMAL      LOGFILE
                                          ( logfile )

 ***************************************************************************************************
 (LOGFILE)
 <Dec11-2023> <10:56:58>  DIRAC 2019  RunTime: Dec11-2023 10:56:58  Nodes: 1  Procs: 1
 <Dec11-2023> <10:56:58>  NORMAL TERMINATION
 <Dec11-2023> <10:56:58>  END
 <Dec11-2023> <10:56:59>  ADF 2019  RunTime: Dec11-2023 10:56:59  Nodes: 1  Procs: 1
 <Dec11-2023> <10:57:01>  Hydrogen (TZP)
 <Dec11-2023> <10:57:01>  RunType   : CREATE
 <Dec11-2023> <10:57:01>  Net Charge: 0 (Nuclei minus Electrons)
 <Dec11-2023> <10:57:01>  Symmetry  : ATOM
  Coordinates
    Atom         X           Y           Z   (Angstrom)
    1.H         0.000000    0.000000    0.000000
 <Dec11-2023> <10:57:01>  >>>> CORORT
 <Dec11-2023> <10:57:01>  >>>> CLSMAT
 <Dec11-2023> <10:57:01>  >>>> ORTHON
 <Dec11-2023> <10:57:01>  >>>> GENPT
 <Dec11-2023> <10:57:01>  Block Length=  64
 <Dec11-2023> <10:57:01>  >>>> PTBAS
 <Dec11-2023> <10:57:01>  >>>> CYCLE
 <Dec11-2023> <10:57:01>              |Error|         MaxErr       Wt(A-DIIS)
 <Dec11-2023> <10:57:01>      1      0.00000000      0.00000000
 <Dec11-2023> <10:57:01>      2      0.03153787      0.03011049
 <Dec11-2023> <10:57:01>      3      0.00861799      0.00834303    100.0
 <Dec11-2023> <10:57:01>      4      0.00173235      0.00171862      0.7
 <Dec11-2023> <10:57:01>      5      0.00004367      0.00003977      0.0
 <Dec11-2023> <10:57:01>      6      0.00000238      0.00000216      0.0
 <Dec11-2023> <10:57:01>      7      0.00000001      0.00000001      0.0
 <Dec11-2023> <10:57:01>  SCF converged
 <Dec11-2023> <10:57:01>      8      0.00000000      0.00000000      0.0
 <Dec11-2023> <10:57:01>  >>>> POPAN
 <Dec11-2023> <10:57:01>  >>>> DEBYE
 <Dec11-2023> <10:57:01>  NORMAL TERMINATION
 <Dec11-2023> <10:57:01>  END

 *******************************************************************************
 *                                                                             *
 *  -------------------------------------                                      *
 *   Amsterdam Density Functional  (ADF)         2019                          *
 *  -------------------------------------                                      *
 *                                               r79301 2019-11-09             *
 *                                                                             *
 *                                                                             *
 *                            =====================                            *
 *                            |                   |                            *
 *                            |     D I R A C     |                            *
 *                            |                   |                            *
 *                            =====================                            *
 *                                                                             *
 *                                                                             *
 *   Online information and documentation:  https://www.scm.com/support/       *
 *   E-mail:  support@scm.com   info@scm.com                                   *
 *                                                                             *
 *   Scientific publications using ADF results must be properly referenced     *
 *   See the User Manuals (or the web site) for recommended citations          *
 *   The terms and conditions of the End User License Agreement apply to       *
 *   the use of ADF, https://www.scm.com/license-terms/                        *
 *                                                                             *
 **********************  x86_64_linux_intel / intelmpi  ************************
 
  
 DIRAC 2019  RunTime: Dec11-2023 10:57:02  Nodes: 1  Procs: 1

 Temporary files are created in /scratch/kid_0.1887508670 (0x58465342)

1
 OXYGEN ATOM 1s CORE RELATIVISTIC, Point Nuc, A and c from li
 N J RN H ZN XION ANUC CLIGHT
 5000    4100.00000000197.36710137  8.00000000  0.00000000   15.994914  0.1370360E+03
  PH   PHI     EPS        DEL        DELRVR
  0.30  0.30     2500.00  0.00001000  0.00001000
 IDIRC  NC1  NDEBU NPRIN  IPUN IRCOR IWCOR
   1   300     0     0     0     0     1
   XALPHA      XLATTER      RNUC
  0.70000000  0.00000000  0.00000000 Point Charge
   XN   XL   XJ      XE          XZ      XDELL
  1.0  0.0  0.5      -5.000       2.000     0.00000
  2.0  0.0  0.5      -1.000       2.000     0.00000
  2.0  1.0  0.5      -1.000       2.000     0.00000
  2.0  1.0  1.5      -1.000       2.000     0.00000
 ICORP=  0  NPCL=  0  DEMP=0.00  PEPS=0.000000
 R(1)=  0.1000000E-08 D=  0.1005080E+01 RNUC=  0.0000000E+00
 converged at cycle   28  DENSITY AVERAGING    0.2400
  MAXIMUM ERROR IN R.V(R) IS   0.81125670E-05
 Q,EY,EV,EZ,ESUM,ETOT,RHO  0.800000E+01 -0.101247E+02 -0.114961E+03 -0.177573E+03 -0.405053E+02 -0.743427E+02  0.414766E-14


 DIRAC CALCULATION
1                    OXYGEN ATOM 1s CORE RELATIVISTIC, Point Nuc, A and c from libtc


 EXCHANGE COEFFICIENT=  0.7000000           TAIL CORRECTION=  0.           NUCLEAR RADIUS=  0.000E+00
0                       ORBITAL    N    L    J     ELECTRONS     EIGENVALUE                DELTA OF EIGENV.

                          1S1/2  1.0  0.0  0.5     2.000       -0.1880014E+02                 0.7264358E-06
                          2S1/2  2.0  0.0  0.5     2.000       -0.8412236E+00                 0.5932752E-05
                          2P1/2  2.0  1.0  0.5     2.000       -0.3063203E+00                 0.5998471E-05
                          2P3/2  2.0  1.0  1.5     2.000       -0.3049609E+00                 0.5986971E-05


                                        NUCLEAR CHARGE=    8.000000
                            INTEGRAL OF CHARGE DENSITY=    8.000000
                           SUM OF THE ORBITAL ENERGIES=    -40.5053
                                          TOTAL ENERGY=    -74.3427
                                        KINETIC ENERGY=     74.4552
                             NUCLEAR ATTRACTION ENERGY=   -177.5730
                             ELECTRON REPULSION ENERGY=     36.3686
                                       EXCHANGE ENERGY=     -7.5935

 *******************************************************************************

                             D I R A C   E X I T
 NORMAL TERMINATION



 =================
 Timing Statistics
 =================
  
 Total Used :                     CPU=        0.10      System=        0.01     Elapsed=        0.52

 Calls  Section                     ( Mean, Percentage )
 ---------------------------------------------------------------------------------------------------
     2  ><      ................      0.00    0.00             0.00    0.00             0.00    0.00
     1  EXIT PROCEDURE .........      0.10  100.00             0.01  100.00             0.52  100.00


 Currently Open Files (EXIT00)
 ====================

 Unit    Access Format  Status   Type       Ident (file)
 -------------------------------------------------------
   3      SEQ    FORM   TRANSP  NORMAL      LOGFILE
                                          ( logfile )
 
Create O   file=TZP-O.1s
XC
  GGA PBE
End
relativistic ZORA
Corepotentials t12.rel
End

 *******************************************************************************
 *                                                                             *
 *  -------------------------------------                                      *
 *   Amsterdam Density Functional  (ADF)         2019                          *
 *  -------------------------------------                                      *
 *                                               r79301 2019-11-09             *
 *                                                                             *
 *                                                                             *
 *                              =================                              *
 *                              |               |                              *
 *                              |     A D F     |                              *
 *                              |               |                              *
 *                              =================                              *
 *                                                                             *
 *                                                                             *
 *   Online information and documentation:  https://www.scm.com/support/       *
 *   E-mail:  support@scm.com   info@scm.com                                   *
 *                                                                             *
 *   Scientific publications using ADF results must be properly referenced     *
 *   See the User Manuals (or the web site) for recommended citations          *
 *   The terms and conditions of the End User License Agreement apply to       *
 *   the use of ADF, https://www.scm.com/license-terms/                        *
 *                                                                             *
 **********************  x86_64_linux_intel / intelmpi  ************************
 
  
 ADF 2019  RunTime: Dec11-2023 10:57:03  Nodes: 1  Procs: 1

 Temporary files are created in /scratch/kid_0.1113075510 (0x58465342)

 Oxygen (TZP, 1s frozen)



 ===========================
 A T T A C H E D   F I L E S
 ===========================
  
 CREATE - Data File:    TZP-O.1s
                        Oxygen (TZP, 1s frozen)
 Core Potentials:
         file : t12.rel



 ===============================
 M O D E L   P A R A M E T E R S
 ===============================
  
 DENSITY FUNCTIONAL POTENTIAL (scf)
    LDA:                               PW92                                    == Not Default ==
    Gradient Corrections:              PBEc PBEx                               == Not Default ==

 SPIN  (restricted / unrestr.)
    Molecule:                          Restricted                               

 OTHER ASPECTS
    Relativistic Corrections:          scalar (ZORA,MAPA)                      == Not Default ==

    Nuclear Charge Density Model:      Point Charge Nuclei                      
    Core Treatment:                    Frozen Orbital(s)                        

    Hyperfine or Zeeman Interaction:   ---                                      



 =====================================
 S Y M M E T R Y ,   E L E C T R O N S
 =====================================
  
 Symmetry: ATOM

 Irreducible Representations, including subspecies
 -------------------------------------------------
 S
 P:x  P:y  P:z
 D:z2  D:x2-y2  D:xy  D:xz  D:yz
 F:z3  F:z  F:xyz  F:z2x  F:z2y  F:x  F:y


 Configuration of Valence Electrons
 ==================================

          Occupation Numbers
          -------------------------------------------------
 S        2
 P        4
 D        0
 F        0
          -------------------------------------------------

 Total:   6

 Net Charge: 0 (Nuclei minus Electrons)

 Preset values for MO occupations will be applied through SCF cycle no. 1000000
 Thereafter, the program will assign electrons to MOs that are spatially
 similar to the occupied MOs in a "reference" cycle ("KeepOrbitals").
 The reference cycle is always the PREVIOUS cycle: it will evolve with
 the SCF procedure.



 ================================
 (Slater-type)  F U N C T I O N S  ***  (Basis and Fit)  ***
 ================================
  

 Atom Type    1  (O)
 ==============

 Valence Basis Sets:   8
 -----------------------
   1 S    7.360000
   2 S    1.720000
   2 S    2.880000
   2 S    7.580000
   2 P    1.120000
   2 P    2.080000
   2 P    4.080000
   3 D    2.000000

 Frozen Core Shells
 ------------------
    S:  1


 BAS: List of all Elementary Cartesian Basis Functions
 =====================================================

 The numbering in the list below (to the right of the function characteristics) is referred
 to in print-outs of MO eigenvectors and Mulliken populations in the BAS representation
 (as contrasted to the SFO representation).

 Notes:
 1. The functions are characterized by a polynomial prefactor (powers of x,y,z and r) and
    an exponential decay factor alpha.
 2. Since the basis sets are specific for an atom TYPE, the individual functions occur on
    all atoms of that type.
 3. The word 'Core' in the left margin signals that it is a Core Function (CF) : not a
    degree of freedom in the valence set, but only used to ensure orthogonalization of
    the other valence basis functions on the frozen Core Orbitals.


 (power of) X  Y  Z  R     Alpha  on Atom
            ==========     =====     ==========

 O                                    1
                                  ---------------------------------------------------------------------------
    Core    0  0  0  0     7.360      1
            0  0  0  1     1.720      2
            0  0  0  1     2.880      3
            0  0  0  1     7.580      4
            1  0  0  0     1.120      5
            0  1  0  0     1.120      6
            0  0  1  0     1.120      7
            1  0  0  0     2.080      8
            0  1  0  0     2.080      9
            0  0  1  0     2.080     10
            1  0  0  0     4.080     11
            0  1  0  0     4.080     12
            0  0  1  0     4.080     13
            2  0  0  0     2.000     14
            1  1  0  0     2.000     15
            1  0  1  0     2.000     16
            0  2  0  0     2.000     17
            0  1  1  0     2.000     18
            0  0  2  0     2.000     19

 Total number of charge fitting functions (nprimf)        82
 Total number of Cartesian basis functions (naos)         19
 Total number of Cartesian core functions  (ncos)          1



 BAS: List of all Elementary Cartesian Basis Functions
 =====================================================

 The numbering in the list below (to the right of the function characteristics) is referred
 to in print-outs of MO eigenvectors and Mulliken populations in the BAS representation
 (as contrasted to the SFO representation).

 Notes:
 1. The functions are characterized by a polynomial prefactor (powers of x,y,z and r) and
    an exponential decay factor alpha.
 2. Since the basis sets are specific for an atom TYPE, the individual functions occur on
    all atoms of that type.
 3. The word 'Core' in the left margin signals that it is a Core Function (CF) : not a
    degree of freedom in the valence set, but only used to ensure orthogonalization of
    the other valence basis functions on the frozen Core Orbitals.


 (power of) X  Y  Z  R     Alpha  on Atom
            ==========     =====     ==========

 O                                    1
                                  ---------------------------------------------------------------------------
    Core    0  0  0  0     7.360      1
            0  0  0  1     1.720      2
            0  0  0  1     2.880      3
            0  0  0  1     7.580      4
            1  0  0  0     1.120      5
            0  1  0  0     1.120      6
            0  0  1  0     1.120      7
            1  0  0  0     2.080      8
            0  1  0  0     2.080      9
            0  0  1  0     2.080     10
            1  0  0  0     4.080     11
            0  1  0  0     4.080     12
            0  0  1  0     4.080     13
            2  0  0  0     2.000     14
            1  1  0  0     2.000     15
            1  0  1  0     2.000     16
            0  2  0  0     2.000     17
            0  1  1  0     2.000     18
            0  0  2  0     2.000     19
1
 ***************************************************************************************************



                                              ***********************
                                              *  T E C H N I C A L  *
                                              ***********************
  



 =============================================================
 P A R A L L E L I Z A T I O N  and  V E C T O R I Z A T I O N
 =============================================================
  
 Nr of parallel processes:                                1
 Maximum vector length in NumInt loops:                 128



 =====================
 S C F   U P D A T E S
 =====================
  
 Max. nr. of cycles:                               300
 Convergence criterion:                              0.0000000100
   secondary criterion:                              0.0000000100

 Mix parameter (when DIIS does not apply):           0.2000000000
 Special mix parameter for the first cycle:          1.0000000000
 Mixed ADIIS+SDIIS will be used                  
    Max number of expansion vectors:                10
    Pure ADIIS when Max([F,P]) is above              0.1000000000
    Pure SDIIS when Max([F,P]) is below              0.0010000000
 Automatic ElectronSmearing (in case of problematic SCF convergence) disabled



 =================
 P R E C I S I O N  ***  (General: NumInt, NeglectFunctionTails, ...)  ***
 =================
  

 NumInt:           Target precision:                12.0000000000
 -------           Initial precision:               10.0000000000
                   Min. precision (optimization):   10.0000000000

 Neglect Functions:          Basis functions:        0.1000000000E-13
 ------------------          Fit functions:          0.1000000000E-13



 ===========================
 L I N E A R   S C A L I N G
 ===========================
  

 Cut-off radii density fit:                        0.1000000000E-97
 Overlap cut-off criterion AO matrix elements:     0.1000000000E-97
 Cut-offs for Coulomb potential and fitted density:0.1000000000E-97
 Cut-off criterion for Coulomb multipole terms:    0.1000000000E-97
 Progressive Convergence parameter:                 0.000000000    
1
 ***************************************************************************************************



                                            ***************************
                                            *  C O M P U T A T I O N  *
                                            ***************************
  

 Number of elements of the density matrix on this node (used, total):       190       190



 ===========================================
 Numerical Integration : Fuzzy Cells (Becke)
 ===========================================
  
 Becke grid quality: VERYGOOD       
  
 Lebedev angular grid order:             min:  13 max:  41
 Nr. of radial points:                   min:  68 max:  68

 Total nr. of points:         68
 Nr. of blocks:                1
 Block length:                68
 Nr. of dummy points:          0


 Test of Precision of the Numerical Integration Grid
 ===================================================

 Integral of the Total Core Density:                   1.99999999865610
 Relative Error:                                      -6.720E-10



 ========================
 Density Fitting (zlmFit)
 ========================
  
 ZlmFit Fit Quality: VERYGOOD       
  
 Max L-expansion:                        min:   0 max:   0
 Nr. of radial interpolation points:     min: 140 max: 140



 =====
 S C F  ***  ScaSCF  ***
 =====
  

 CYCLE    1
 SCF Error: norm([F,P])=      0.000000000000, max([F,P])=      0.000000000000
 orbitals (Q,E):
 ---------------
 S :1...3            ( 2.00    -5.3654)  ( 0.00    -2.2073)  ( 0.00    23.6692)
 P :1...3            ( 4.00    -5.0045)  ( 0.00    -2.0150)  ( 0.00    -0.3846)
 D :1...1            ( 0.00    -2.0410)

 CYCLE    2
 SCF Error: norm([F,P])=      4.562993374873, max([F,P])=      2.528971113813
 orbitals (Q,E):
 ---------------
 S :1...2            ( 2.00    -0.1548)  ( 0.00     1.6948)
 P :1...2            ( 4.00     0.1773)  ( 0.00     0.9552)
 D :1...1            ( 0.00     1.4649)

 CYCLE    3
  SDIIS (wt  0.000):  0.3378  0.6622
 A-DIIS (wt  1.000):  0.4814  0.5186
  DIIS coefficients:  0.4814  0.5186
 SCF Error: norm([F,P])=      2.723155250500, max([F,P])=      1.798667049295
 orbitals (Q,E):
 ---------------
 S :1...2            ( 2.00    -1.1093)  ( 0.00     0.7549)
 P :1...2            ( 4.00    -0.5518)  ( 0.00     0.2590)
 D :1...1            ( 0.00     0.8910)

 CYCLE    4
  SDIIS (wt  0.000):  0.0919  0.9081
 A-DIIS (wt  1.000):  0.0000  1.0000
  DIIS coefficients:  0.0000  1.0000
 SCF Error: norm([F,P])=      0.289027138405, max([F,P])=      0.130648623511
 orbitals (Q,E):
 ---------------
 S :1...2            ( 2.00    -0.7707)  ( 0.00     0.9912)
 P :1...2            ( 4.00    -0.2284)  ( 0.00     0.4046)
 D :1...1            ( 0.00     1.1288)

 CYCLE    5
  SDIIS (wt  0.000):  0.0260  0.6740  0.3001
 A-DIIS (wt  1.000):  0.0000  0.5764  0.4236
  DIIS coefficients:  0.0000  0.5764  0.4236
 SCF Error: norm([F,P])=      0.416615089426, max([F,P])=      0.232643669786
 orbitals (Q,E):
 ---------------
 S :1...2            ( 2.00    -0.8764)  ( 0.00     0.9107)
 P :1...2            ( 4.00    -0.3280)  ( 0.00     0.3557)
 D :1...1            ( 0.00     1.0703)

 CYCLE    6
  SDIIS (wt  0.942):  0.0005  0.0237 -0.0203  0.9960
 A-DIIS (wt  0.058):  0.0000  0.0000  0.0000  1.0000
  DIIS coefficients:  0.0005  0.0224 -0.0191  0.9962
 SCF Error: norm([F,P])=      0.013723272809, max([F,P])=      0.006719036732
 orbitals (Q,E):
 ---------------
 S :1...2            ( 2.00    -0.8830)  ( 0.00     0.9058)
 P :1...2            ( 4.00    -0.3343)  ( 0.00     0.3521)
 D :1...1            ( 0.00     1.0657)

 CYCLE    7
  SDIIS (wt  1.000): -0.0000  0.0016  0.0023  0.0424  0.9537
  DIIS coefficients: -0.0000  0.0016  0.0023  0.0424  0.9537
 SCF Error: norm([F,P])=      0.001103645928, max([F,P])=      0.000634039171
 orbitals (Q,E):
 ---------------
 S :1...2            ( 2.00    -0.8827)  ( 0.00     0.9060)
 P :1...2            ( 4.00    -0.3340)  ( 0.00     0.3523)
 D :1...1            ( 0.00     1.0659)

 CYCLE    8
  SDIIS (wt  1.000): -0.0000 -0.0001  0.0000 -0.0032  0.0268  0.9765
  DIIS coefficients: -0.0000 -0.0001  0.0000 -0.0032  0.0268  0.9765
 SCF Error: norm([F,P])=      0.000035919805, max([F,P])=      0.000020263970
 orbitals (Q,E):
 ---------------
 S :1...2            ( 2.00    -0.8827)  ( 0.00     0.9060)
 P :1...2            ( 4.00    -0.3340)  ( 0.00     0.3522)
 D :1...1            ( 0.00     1.0659)

 CYCLE    9
  SDIIS (wt  1.000): -0.0000  0.0008  0.0188  0.9804
  DIIS coefficients: -0.0000  0.0008  0.0188  0.9804
 SCF Error: norm([F,P])=      0.000000326384, max([F,P])=      0.000000183924
 orbitals (Q,E):
 ---------------
 S :1...2            ( 2.00    -0.8827)  ( 0.00     0.9060)
 P :1...2            ( 4.00    -0.3340)  ( 0.00     0.3522)
 D :1...1            ( 0.00     1.0659)

 CYCLE   10
  SDIIS (wt  1.000):  0.0000  0.0003  0.9996
  DIIS coefficients:  0.0000  0.0003  0.9996
 SCF Error: norm([F,P])=      0.000000000559, max([F,P])=      0.000000000306
 orbitals (Q,E):
 ---------------
 S :1...2            ( 2.00    -0.8827)  ( 0.00     0.9060)
 P :1...2            ( 4.00    -0.3340)  ( 0.00     0.3522)
 D :1...1            ( 0.00     1.0659)

 SCF CONVERGED

 CYCLE   11
1
 ***************************************************************************************************



                                                *******************
                                                *  R E S U L T S  *
                                                *******************
  
 *** Using FIT density in Focky
  SDIIS (wt  1.000): -0.0000  0.0143  0.9857
  DIIS coefficients: -0.0000  0.0143  0.9857
 SCF Error: norm([F,P])=      0.000000000010, max([F,P])=      0.000000000006

 Scaled ZORA Orbital Energies, per Irrep and Spin:
 =================================================
                        Occup              E (au)              E (eV)       Diff (eV) with prev. cycle
                        -----      --------------------        ------       --------------------------
 S
               1        2.000     -0.88272313143209E+00       -24.020              -9.28E-11
               2        0.000      0.90601345014671E+00        24.654
               3        0.000      0.29578810816937E+02       804.880
 P
               1        4.000     -0.33400585272070E+00        -9.089              -8.94E-11
               2        0.000      0.35224911365993E+00         9.585
               3        0.000      0.38342927625315E+01       104.336
 D
               1        0.000      0.10658965783141E+01        29.005


 Partially Occupied:
               1 P                -0.33400585272070E+00
  
 HOMO :        1 S                -0.88272313143209E+00
 LUMO :        2 P                 0.35224911365993E+00
  


 Orbital Energies, all Irreps
 ========================================

 Irrep        no.  (spin)   Occup              E (au)                E (eV)
 ---------------------------------------------------------------------------
 S             1             2.00       -0.88272313143209E+00       -24.0201
 P             1             4.00       -0.33400585272070E+00        -9.0888
 P             2             0.00        0.35224911365993E+00         9.5852
 S             2             0.00        0.90601345014671E+00        24.6539
 D             1             0.00        0.10658965783141E+01        29.0045
 P             3             0.00        0.38342927625315E+01       104.3364
 S             3             0.00        0.29578810816937E+02       804.8804


 Scaled ZORA Orbital Energies of the Core Orbitals:
 ==================================================

 (Note that the atoms are grouped by atomtype, see the labels, and may hence NOT be in input order)

 AtomType  Orbital  Atom                   E (au)                        E (eV)
 --------  -------  ----           --------------------        ----------------
 O           1S        1          -0.18925919758629E+02                -515.000



 =======================================
 M U L L I K E N   P O P U L A T I O N S
 =======================================
  
 The survey below gives for each atom:
 a) the total charge (Z minus electrons)
 b) the net spin polarization (nr of electrons spin-A minus spin-B)
 c) for each spin the atomic electron valence density (integrated) per L-value.

 Atom              Charge    Spin density          S         P         D         F
 ----              ------    ------------       ------    ------    ------    ------
 1 O              -0.0000                       2.0000    4.0000    0.0000    0.0000

 Populations of individual BAS functions
 ----------------------------------------
 1 O            0.0005  0.9226  1.0966 -0.0196  0.3346  0.3346  0.3346  0.7512  0.7512  0.7512
                0.2476  0.2476  0.2476  0.0000  0.0000  0.0000  0.0000  0.0000  0.0000

 Gross Charges per Atom (Z minus electrons)
 ==========================================
            -0.0000
 Net Total: -0.00000000



 =======================================================================
 Electrostatic potential at the Nuclei due to electrons and other nuclei
 =======================================================================
  
         Atom                  Potential
         ----                  ---------
     1)   O                  22.20265662
 
 
 ========================
 No memory problems found
 ========================
 
 Maximum number of active allocate calls:         389
 
 *******************************************************************************

                             A D F   E X I T
 NORMAL TERMINATION



 =================
 Timing Statistics
 =================
  
 Total Used :                     CPU=        0.44      System=        0.01     Elapsed=        1.07

 Calls  Section                     ( Mean, Percentage )
 ---------------------------------------------------------------------------------------------------
     3  ><      ................      0.00    0.00             0.00   33.33             0.02    6.90
     1  INIT    ................      0.07   16.51             0.00    0.00             0.17   16.30
     1  GEOMET  ................      0.02    3.67             0.00    0.00             0.13   12.00
     1  INPUTA  ................      0.00    0.92             0.00    0.00             0.03    2.75
     1  MAINSY  ................      0.00    0.92             0.00   33.33             0.19   18.21
     1  SYMFIT  ................      0.00    0.92             0.00    0.00             0.00    0.15
     1  CORORT  ................      0.00    0.00             0.00    0.00             0.05    4.24
     1  SYMORB  ................      0.00    0.00             0.00    0.00             0.00    0.08
     1  CLSMAT  ................      0.01    1.83             0.00    0.00             0.04    3.79
     1  ORTHON  ................      0.00    0.92             0.00    0.00             0.01    0.91
     1  GENPT   ................      0.01    2.75             0.00    0.00             0.02    1.89
     1  PTBAS   ................      0.00    0.92             0.00    0.00             0.01    0.52
    11  FOCKY   ................      0.02   55.96             0.00    0.00             0.02   23.24
    11  FOCKTR  ................      0.00    0.92             0.00    0.00             0.00    0.70
    11  SDIIS   ................      0.00    6.42             0.00    0.00             0.00    4.74
     1  COREPS  ................      0.02    3.67             0.00    0.00             0.02    1.64
     1  POPAN   ................      0.00    0.92             0.00    0.00             0.01    0.51
     1  DEBYE   ................      0.00    0.00             0.00   33.33             0.00    0.18
     1  EXIT PROCEDURE .........      0.01    2.75             0.00    0.00             0.01    1.23


 Currently Open Files (EXIT00)
 ====================

 Unit    Access Format  Status   Type       Ident (file)
 -------------------------------------------------------
   3      SEQ    FORM   TRANSP  NORMAL      LOGFILE
                                          ( logfile )

 ***************************************************************************************************
 (LOGFILE)
 <Dec11-2023> <10:56:58>  DIRAC 2019  RunTime: Dec11-2023 10:56:58  Nodes: 1  Procs: 1
 <Dec11-2023> <10:56:58>  NORMAL TERMINATION
 <Dec11-2023> <10:56:58>  END
 <Dec11-2023> <10:56:59>  ADF 2019  RunTime: Dec11-2023 10:56:59  Nodes: 1  Procs: 1
 <Dec11-2023> <10:57:01>  Hydrogen (TZP)
 <Dec11-2023> <10:57:01>  RunType   : CREATE
 <Dec11-2023> <10:57:01>  Net Charge: 0 (Nuclei minus Electrons)
 <Dec11-2023> <10:57:01>  Symmetry  : ATOM
  Coordinates
    Atom         X           Y           Z   (Angstrom)
    1.H         0.000000    0.000000    0.000000
 <Dec11-2023> <10:57:01>  >>>> CORORT
 <Dec11-2023> <10:57:01>  >>>> CLSMAT
 <Dec11-2023> <10:57:01>  >>>> ORTHON
 <Dec11-2023> <10:57:01>  >>>> GENPT
 <Dec11-2023> <10:57:01>  Block Length=  64
 <Dec11-2023> <10:57:01>  >>>> PTBAS
 <Dec11-2023> <10:57:01>  >>>> CYCLE
 <Dec11-2023> <10:57:01>              |Error|         MaxErr       Wt(A-DIIS)
 <Dec11-2023> <10:57:01>      1      0.00000000      0.00000000
 <Dec11-2023> <10:57:01>      2      0.03153787      0.03011049
 <Dec11-2023> <10:57:01>      3      0.00861799      0.00834303    100.0
 <Dec11-2023> <10:57:01>      4      0.00173235      0.00171862      0.7
 <Dec11-2023> <10:57:01>      5      0.00004367      0.00003977      0.0
 <Dec11-2023> <10:57:01>      6      0.00000238      0.00000216      0.0
 <Dec11-2023> <10:57:01>      7      0.00000001      0.00000001      0.0
 <Dec11-2023> <10:57:01>  SCF converged
 <Dec11-2023> <10:57:01>      8      0.00000000      0.00000000      0.0
 <Dec11-2023> <10:57:01>  >>>> POPAN
 <Dec11-2023> <10:57:01>  >>>> DEBYE
 <Dec11-2023> <10:57:01>  NORMAL TERMINATION
 <Dec11-2023> <10:57:01>  END
 <Dec11-2023> <10:57:02>  DIRAC 2019  RunTime: Dec11-2023 10:57:02  Nodes: 1  Procs: 1
 <Dec11-2023> <10:57:02>  NORMAL TERMINATION
 <Dec11-2023> <10:57:02>  END
 <Dec11-2023> <10:57:03>  ADF 2019  RunTime: Dec11-2023 10:57:03  Nodes: 1  Procs: 1
 <Dec11-2023> <10:57:03>  Oxygen (TZP, 1s frozen)
 <Dec11-2023> <10:57:03>  RunType   : CREATE
 <Dec11-2023> <10:57:03>  Net Charge: 0 (Nuclei minus Electrons)
 <Dec11-2023> <10:57:03>  Symmetry  : ATOM
  Coordinates
    Atom         X           Y           Z   (Angstrom)
    1.O         0.000000    0.000000    0.000000
 <Dec11-2023> <10:57:03>  >>>> CORORT
 <Dec11-2023> <10:57:03>  >>>> CLSMAT
 <Dec11-2023> <10:57:03>  >>>> ORTHON
 <Dec11-2023> <10:57:03>  >>>> GENPT
 <Dec11-2023> <10:57:03>  Block Length=  68
 <Dec11-2023> <10:57:03>  >>>> PTBAS
 <Dec11-2023> <10:57:03>  >>>> CYCLE
 <Dec11-2023> <10:57:03>              |Error|         MaxErr       Wt(A-DIIS)
 <Dec11-2023> <10:57:03>      1      0.00000000      0.00000000
 <Dec11-2023> <10:57:03>      2      4.56299337      2.52897111
 <Dec11-2023> <10:57:03>      3      2.72315525      1.79866705    100.0
 <Dec11-2023> <10:57:03>      4      0.28902714      0.13064862    100.0
 <Dec11-2023> <10:57:04>      5      0.41661509      0.23264367    100.0
 <Dec11-2023> <10:57:04>      6      0.01372327      0.00671904      5.8
 <Dec11-2023> <10:57:04>      7      0.00110365      0.00063404      0.0
 <Dec11-2023> <10:57:04>      8      0.00003592      0.00002026      0.0
 <Dec11-2023> <10:57:04>      9      0.00000033      0.00000018      0.0
 <Dec11-2023> <10:57:04>     10      0.00000000      0.00000000      0.0
 <Dec11-2023> <10:57:04>  SCF converged
 <Dec11-2023> <10:57:04>     11      0.00000000      0.00000000      0.0
 <Dec11-2023> <10:57:04>  >>>> POPAN
 <Dec11-2023> <10:57:04>  >>>> DEBYE
 <Dec11-2023> <10:57:04>  NORMAL TERMINATION
 <Dec11-2023> <10:57:04>  END

 *******************************************************************************
 *                                                                             *
 *  -------------------------------------                                      *
 *   Amsterdam Density Functional  (ADF)         2019                          *
 *  -------------------------------------                                      *
 *                                               r79301 2019-11-09             *
 *                                                                             *
 *                                                                             *
 *                            =====================                            *
 *                            |                   |                            *
 *                            |     D I R A C     |                            *
 *                            |                   |                            *
 *                            =====================                            *
 *                                                                             *
 *                                                                             *
 *   Online information and documentation:  https://www.scm.com/support/       *
 *   E-mail:  support@scm.com   info@scm.com                                   *
 *                                                                             *
 *   Scientific publications using ADF results must be properly referenced     *
 *   See the User Manuals (or the web site) for recommended citations          *
 *   The terms and conditions of the End User License Agreement apply to       *
 *   the use of ADF, https://www.scm.com/license-terms/                        *
 *                                                                             *
 **********************  x86_64_linux_intel / intelmpi  ************************
 
  
 DIRAC 2019  RunTime: Dec11-2023 10:57:04  Nodes: 1  Procs: 1

 Temporary files are created in /scratch/kid_0.27696220 (0x58465342)

1
 TUNGSTEN ATOM 4d CORE RELATIVISTIC, Point Nuc, A and c from 
 N J RN H ZN XION ANUC CLIGHT
 5000   22100.00000000197.36710137 74.00000000  0.00000000  183.950932  0.1370360E+03
  PH   PHI     EPS        DEL        DELRVR
  0.30  0.30     2500.00  0.00001000  0.00001000
 IDIRC  NC1  NDEBU NPRIN  IPUN IRCOR IWCOR
   1   300     0     0     0     0    14
   XALPHA      XLATTER      RNUC
  0.70000000  0.00000000  0.00000000 Point Charge
   XN   XL   XJ      XE          XZ      XDELL
  1.0  0.0  0.5   -2600.000       2.000     0.00000
  2.0  0.0  0.5    -425.000       2.000     0.00000
  2.0  1.0  0.5    -425.000       2.000     0.00000
  2.0  1.0  1.5    -425.000       4.000     0.00000
  3.0  0.0  0.5    -100.000       2.000     0.00000
  3.0  1.0  0.5    -100.000       2.000     0.00000
  3.0  1.0  1.5    -100.000       4.000     0.00000
  3.0  2.0  1.5     -80.000       4.000     0.00000
  3.0  2.0  2.5     -80.000       6.000     0.00000
  4.0  0.0  0.5     -22.000       2.000     0.00000
  4.0  1.0  0.5     -20.000       2.000     0.00000
  4.0  1.0  1.5     -20.000       4.000     0.00000
  4.0  2.0  1.5     -11.000       4.000     0.00000
  4.0  2.0  2.5     -11.000       6.000     0.00000
  4.0  3.0  2.5      -1.000       6.000     0.00000
  4.0  3.0  3.5      -1.000       8.000     0.00000
  5.0  0.0  0.5      -3.000       2.000     0.00000
  5.0  1.0  0.5      -2.200       2.000     0.00000
  5.0  1.0  1.5      -2.200       4.000     0.00000
  5.0  2.0  1.5      -0.500       4.000     0.00000
  5.0  2.0  2.5      -0.500       0.000     0.00000
  6.0  0.0  0.5      -0.200       2.000     0.00000
 ICORP=  0  NPCL=  0  DEMP=0.00  PEPS=0.000000
 R(1)=  0.1000000E-08 D=  0.1005080E+01 RNUC=  0.0000000E+00
 converged at cycle   63  DENSITY AVERAGING    0.1536
  MAXIMUM ERROR IN R.V(R) IS   0.78838062E-05
 Q,EY,EV,EZ,ESUM,ETOT,RHO  0.740000E+02 -0.431420E+03 -0.281568E+05 -0.403919E+05 -0.993885E+04 -0.161643E+05  0.726391E-09


 DIRAC CALCULATION
1                    TUNGSTEN ATOM 4d CORE RELATIVISTIC, Point Nuc, A and c from libtc


 EXCHANGE COEFFICIENT=  0.7000000           TAIL CORRECTION=  0.           NUCLEAR RADIUS=  0.000E+00
0                       ORBITAL    N    L    J     ELECTRONS     EIGENVALUE                DELTA OF EIGENV.

                          1S1/2  1.0  0.0  0.5     2.000       -0.2549514E+04                 0.5980248E-04
                          2S1/2  2.0  0.0  0.5     2.000       -0.4399118E+03                 0.5052420E-04
                          2P1/2  2.0  1.0  0.5     2.000       -0.4208427E+03                 0.5265062E-04
                          2P3/2  2.0  1.0  1.5     4.000       -0.3711192E+03                 0.5139441E-04
                          3S1/2  3.0  0.0  0.5     2.000       -0.1012881E+03                 0.3437035E-04
                          3P1/2  3.0  1.0  0.5     2.000       -0.9277148E+02                 0.3553128E-04
                          3P3/2  3.0  1.0  1.5     4.000       -0.8201733E+02                 0.3404634E-04
                          3D3/2  3.0  2.0  1.5     4.000       -0.6762803E+02                 0.3680712E-04
                          3D5/2  3.0  2.0  2.5     6.000       -0.6528623E+02                 0.3629511E-04
                          4S1/2  4.0  0.0  0.5     2.000       -0.2084139E+02                 0.1939427E-04
                          4P1/2  4.0  1.0  0.5     2.000       -0.1730737E+02                 0.1933978E-04
                          4P3/2  4.0  1.0  1.5     4.000       -0.1480597E+02                 0.1810922E-04
                          4D3/2  4.0  2.0  1.5     4.000       -0.8989319E+01                 0.1779394E-04
                          4D5/2  4.0  2.0  2.5     6.000       -0.8528007E+01                 0.1741170E-04
                          4F5/2  4.0  3.0  2.5     6.000       -0.1237480E+01                 0.1544089E-04
                          4F7/2  4.0  3.0  3.5     8.000       -0.1154634E+01                 0.1522033E-04
                          5S1/2  5.0  0.0  0.5     2.000       -0.2863514E+01                 0.7979521E-05
                          5P1/2  5.0  1.0  0.5     2.000       -0.1813289E+01                 0.7246225E-05
                          5P3/2  5.0  1.0  1.5     4.000       -0.1448762E+01                 0.6602120E-05
                          5D3/2  5.0  2.0  1.5     4.000       -0.1486933E+00                 0.3973088E-05
                          5D5/2  5.0  2.0  2.5     0.000       -0.1223153E+00                 0.3735081E-05
                          6S1/2  6.0  0.0  0.5     2.000       -0.1847434E+00                 0.1808440E-05


                                        NUCLEAR CHARGE=   74.000000
                            INTEGRAL OF CHARGE DENSITY=   74.000000
                           SUM OF THE ORBITAL ENERGIES=  -9938.8529
                                          TOTAL ENERGY= -16164.2530
                                        KINETIC ENERGY=  18217.9700
                             NUCLEAR ATTRACTION ENERGY= -40391.9132
                             ELECTRON REPULSION ENERGY=   6333.2551
                                       EXCHANGE ENERGY=   -323.5649

 *******************************************************************************

                             D I R A C   E X I T
 NORMAL TERMINATION



 =================
 Timing Statistics
 =================
  
 Total Used :                     CPU=        0.68      System=        0.00     Elapsed=        0.70

 Calls  Section                     ( Mean, Percentage )
 ---------------------------------------------------------------------------------------------------
     2  ><      ................      0.00    0.00             0.00    0.00             0.00    0.00
     1  EXIT PROCEDURE .........      0.68  100.00             0.00    0.00             0.70  100.00


 Currently Open Files (EXIT00)
 ====================

 Unit    Access Format  Status   Type       Ident (file)
 -------------------------------------------------------
   3      SEQ    FORM   TRANSP  NORMAL      LOGFILE
                                          ( logfile )
 
Create W   file=TZP-W.4d
XC
  GGA PBE
End
relativistic ZORA
Corepotentials t12.rel
End

 *******************************************************************************
 *                                                                             *
 *  -------------------------------------                                      *
 *   Amsterdam Density Functional  (ADF)         2019                          *
 *  -------------------------------------                                      *
 *                                               r79301 2019-11-09             *
 *                                                                             *
 *                                                                             *
 *                              =================                              *
 *                              |               |                              *
 *                              |     A D F     |                              *
 *                              |               |                              *
 *                              =================                              *
 *                                                                             *
 *                                                                             *
 *   Online information and documentation:  https://www.scm.com/support/       *
 *   E-mail:  support@scm.com   info@scm.com                                   *
 *                                                                             *
 *   Scientific publications using ADF results must be properly referenced     *
 *   See the User Manuals (or the web site) for recommended citations          *
 *   The terms and conditions of the End User License Agreement apply to       *
 *   the use of ADF, https://www.scm.com/license-terms/                        *
 *                                                                             *
 **********************  x86_64_linux_intel / intelmpi  ************************
 
  
 ADF 2019  RunTime: Dec11-2023 10:57:05  Nodes: 1  Procs: 1

 Temporary files are created in /scratch/kid_0.1393256516 (0x58465342)

 Tungsten (TZP, 4d frozen)



 ===========================
 A T T A C H E D   F I L E S
 ===========================
  
 CREATE - Data File:    TZP-W.4d
                        Tungsten (TZP, 4d frozen)
 Core Potentials:
         file : t12.rel



 ===============================
 M O D E L   P A R A M E T E R S
 ===============================
  
 DENSITY FUNCTIONAL POTENTIAL (scf)
    LDA:                               PW92                                    == Not Default ==
    Gradient Corrections:              PBEc PBEx                               == Not Default ==

 SPIN  (restricted / unrestr.)
    Molecule:                          Restricted                               

 OTHER ASPECTS
    Relativistic Corrections:          scalar (ZORA,MAPA)                      == Not Default ==

    Nuclear Charge Density Model:      Point Charge Nuclei                      
    Core Treatment:                    Frozen Orbital(s)                        

    Hyperfine or Zeeman Interaction:   ---                                      



 =====================================
 S Y M M E T R Y ,   E L E C T R O N S
 =====================================
  
 Symmetry: ATOM

 Irreducible Representations, including subspecies
 -------------------------------------------------
 S
 P:x  P:y  P:z
 D:z2  D:x2-y2  D:xy  D:xz  D:yz
 F:z3  F:z  F:xyz  F:z2x  F:z2y  F:x  F:y


 Configuration of Valence Electrons
 ==================================

          Occupation Numbers
          -------------------------------------------------
 S        2*2
 P        6
 D        4
 F        14
          -------------------------------------------------

 Total:   28

 Net Charge: 0 (Nuclei minus Electrons)

 Preset values for MO occupations will be applied through SCF cycle no. 1000000
 Thereafter, the program will assign electrons to MOs that are spatially
 similar to the occupied MOs in a "reference" cycle ("KeepOrbitals").
 The reference cycle is always the PREVIOUS cycle: it will evolve with
 the SCF procedure.



 ================================
 (Slater-type)  F U N C T I O N S  ***  (Basis and Fit)  ***
 ================================
  

 Atom Type    1  (W)
 ==============

 Valence Basis Sets:  25
 -----------------------
   1 S   52.000000
   2 S   33.250000
   3 S   19.100000
   4 S   11.650000
   2 P   36.850000
   3 P   16.500000
   4 P   11.550000
   3 D   20.100000
   4 D   10.300000
   1 S  163.900000
   5 S    6.050000
   5 S    3.950000
   6 S    2.850000
   6 S    1.800000
   6 S    1.140000
   5 P    5.900000
   5 P    4.000000
   5 P    2.700000
   5 D    4.150000
   5 D    2.250000
   5 D    1.200000
   4 F   13.550000
   4 F    7.050000
   4 F    3.550000
   6 P    1.800000

 Frozen Core Shells
 ------------------
    S:  4
    P:  3
    D:  2


 BAS: List of all Elementary Cartesian Basis Functions
 =====================================================

 The numbering in the list below (to the right of the function characteristics) is referred
 to in print-outs of MO eigenvectors and Mulliken populations in the BAS representation
 (as contrasted to the SFO representation).

 Notes:
 1. The functions are characterized by a polynomial prefactor (powers of x,y,z and r) and
    an exponential decay factor alpha.
 2. Since the basis sets are specific for an atom TYPE, the individual functions occur on
    all atoms of that type.
 3. The word 'Core' in the left margin signals that it is a Core Function (CF) : not a
    degree of freedom in the valence set, but only used to ensure orthogonalization of
    the other valence basis functions on the frozen Core Orbitals.


 (power of) X  Y  Z  R     Alpha  on Atom
            ==========     =====     ==========

 W                                    1
                                  ---------------------------------------------------------------------------
    Core    0  0  0  0    52.000      1
    Core    0  0  0  1    33.250      2
    Core    0  0  0  2    19.100      3
    Core    0  0  0  3    11.650      4
    Core    1  0  0  0    36.850      5
    Core    0  1  0  0    36.850      6
    Core    0  0  1  0    36.850      7
    Core    1  0  0  1    16.500      8
    Core    0  1  0  1    16.500      9
    Core    0  0  1  1    16.500     10
    Core    1  0  0  2    11.550     11
    Core    0  1  0  2    11.550     12
    Core    0  0  1  2    11.550     13
    Core    2  0  0  0    20.100     14
    Core    1  1  0  0    20.100     15
    Core    1  0  1  0    20.100     16
    Core    0  2  0  0    20.100     17
    Core    0  1  1  0    20.100     18
    Core    0  0  2  0    20.100     19
    Core    2  0  0  1    10.300     20
    Core    1  1  0  1    10.300     21
    Core    1  0  1  1    10.300     22
    Core    0  2  0  1    10.300     23
    Core    0  1  1  1    10.300     24
    Core    0  0  2  1    10.300     25
            0  0  0  0   163.900     26
            0  0  0  4     6.050     27
            0  0  0  4     3.950     28
            0  0  0  5     2.850     29
            0  0  0  5     1.800     30
            0  0  0  5     1.140     31
            1  0  0  3     5.900     32
            0  1  0  3     5.900     33
            0  0  1  3     5.900     34
            1  0  0  3     4.000     35
            0  1  0  3     4.000     36
            0  0  1  3     4.000     37
            1  0  0  3     2.700     38
            0  1  0  3     2.700     39
            0  0  1  3     2.700     40
            2  0  0  2     4.150     41
            1  1  0  2     4.150     42
            1  0  1  2     4.150     43
            0  2  0  2     4.150     44
            0  1  1  2     4.150     45
            0  0  2  2     4.150     46
            2  0  0  2     2.250     47
            1  1  0  2     2.250     48
            1  0  1  2     2.250     49
            0  2  0  2     2.250     50
            0  1  1  2     2.250     51
            0  0  2  2     2.250     52
            2  0  0  2     1.200     53
            1  1  0  2     1.200     54
            1  0  1  2     1.200     55
            0  2  0  2     1.200     56
            0  1  1  2     1.200     57
            0  0  2  2     1.200     58
            3  0  0  0    13.550     59
            2  1  0  0    13.550     60
            2  0  1  0    13.550     61
            1  2  0  0    13.550     62
            1  1  1  0    13.550     63
            1  0  2  0    13.550     64
            0  3  0  0    13.550     65
            0  2  1  0    13.550     66
            0  1  2  0    13.550     67
            0  0  3  0    13.550     68
            3  0  0  0     7.050     69
            2  1  0  0     7.050     70
            2  0  1  0     7.050     71
            1  2  0  0     7.050     72
            1  1  1  0     7.050     73
            1  0  2  0     7.050     74
            0  3  0  0     7.050     75
            0  2  1  0     7.050     76
            0  1  2  0     7.050     77
            0  0  3  0     7.050     78
            3  0  0  0     3.550     79
            2  1  0  0     3.550     80
            2  0  1  0     3.550     81
            1  2  0  0     3.550     82
            1  1  1  0     3.550     83
            1  0  2  0     3.550     84
            0  3  0  0     3.550     85
            0  2  1  0     3.550     86
            0  1  2  0     3.550     87
            0  0  3  0     3.550     88
            1  0  0  4     1.800     89
            0  1  0  4     1.800     90
            0  0  1  4     1.800     91

 Total number of charge fitting functions (nprimf)       329
 Total number of Cartesian basis functions (naos)         91
 Total number of Cartesian core functions  (ncos)         25



 BAS: List of all Elementary Cartesian Basis Functions
 =====================================================

 The numbering in the list below (to the right of the function characteristics) is referred
 to in print-outs of MO eigenvectors and Mulliken populations in the BAS representation
 (as contrasted to the SFO representation).

 Notes:
 1. The functions are characterized by a polynomial prefactor (powers of x,y,z and r) and
    an exponential decay factor alpha.
 2. Since the basis sets are specific for an atom TYPE, the individual functions occur on
    all atoms of that type.
 3. The word 'Core' in the left margin signals that it is a Core Function (CF) : not a
    degree of freedom in the valence set, but only used to ensure orthogonalization of
    the other valence basis functions on the frozen Core Orbitals.


 (power of) X  Y  Z  R     Alpha  on Atom
            ==========     =====     ==========

 W                                    1
                                  ---------------------------------------------------------------------------
    Core    0  0  0  0    52.000      1
    Core    0  0  0  1    33.250      2
    Core    0  0  0  2    19.100      3
    Core    0  0  0  3    11.650      4
    Core    1  0  0  0    36.850      5
    Core    0  1  0  0    36.850      6
    Core    0  0  1  0    36.850      7
    Core    1  0  0  1    16.500      8
    Core    0  1  0  1    16.500      9
    Core    0  0  1  1    16.500     10
    Core    1  0  0  2    11.550     11
    Core    0  1  0  2    11.550     12
    Core    0  0  1  2    11.550     13
    Core    2  0  0  0    20.100     14
    Core    1  1  0  0    20.100     15
    Core    1  0  1  0    20.100     16
    Core    0  2  0  0    20.100     17
    Core    0  1  1  0    20.100     18
    Core    0  0  2  0    20.100     19
    Core    2  0  0  1    10.300     20
    Core    1  1  0  1    10.300     21
    Core    1  0  1  1    10.300     22
    Core    0  2  0  1    10.300     23
    Core    0  1  1  1    10.300     24
    Core    0  0  2  1    10.300     25
            0  0  0  0   163.900     26
            0  0  0  4     6.050     27
            0  0  0  4     3.950     28
            0  0  0  5     2.850     29
            0  0  0  5     1.800     30
            0  0  0  5     1.140     31
            1  0  0  3     5.900     32
            0  1  0  3     5.900     33
            0  0  1  3     5.900     34
            1  0  0  3     4.000     35
            0  1  0  3     4.000     36
            0  0  1  3     4.000     37
            1  0  0  3     2.700     38
            0  1  0  3     2.700     39
            0  0  1  3     2.700     40
            2  0  0  2     4.150     41
            1  1  0  2     4.150     42
            1  0  1  2     4.150     43
            0  2  0  2     4.150     44
            0  1  1  2     4.150     45
            0  0  2  2     4.150     46
            2  0  0  2     2.250     47
            1  1  0  2     2.250     48
            1  0  1  2     2.250     49
            0  2  0  2     2.250     50
            0  1  1  2     2.250     51
            0  0  2  2     2.250     52
            2  0  0  2     1.200     53
            1  1  0  2     1.200     54
            1  0  1  2     1.200     55
            0  2  0  2     1.200     56
            0  1  1  2     1.200     57
            0  0  2  2     1.200     58
            3  0  0  0    13.550     59
            2  1  0  0    13.550     60
            2  0  1  0    13.550     61
            1  2  0  0    13.550     62
            1  1  1  0    13.550     63
            1  0  2  0    13.550     64
            0  3  0  0    13.550     65
            0  2  1  0    13.550     66
            0  1  2  0    13.550     67
            0  0  3  0    13.550     68
            3  0  0  0     7.050     69
            2  1  0  0     7.050     70
            2  0  1  0     7.050     71
            1  2  0  0     7.050     72
            1  1  1  0     7.050     73
            1  0  2  0     7.050     74
            0  3  0  0     7.050     75
            0  2  1  0     7.050     76
            0  1  2  0     7.050     77
            0  0  3  0     7.050     78
            3  0  0  0     3.550     79
            2  1  0  0     3.550     80
            2  0  1  0     3.550     81
            1  2  0  0     3.550     82
            1  1  1  0     3.550     83
            1  0  2  0     3.550     84
[...]
  Coordinates in Geometry Cycle 2
    Atom         X           Y           Z   (Angstrom)
    1.W        -1.504695    3.153883   -0.274180
    2.W         1.083217    0.191239    2.680597
    3.W         0.823691   -3.422961   -0.742831
    4.W        -2.334114   -0.563697   -3.360796
    5.W         1.665717    2.630015   -0.120756
    6.W         1.330551   -1.238782   -3.259402
    7.W        -2.826708   -2.664701   -0.953999
    8.W        -2.081767    0.772339    2.529107
    9.W        -1.000895   -2.249529    2.298041
   10.W        -3.918467    0.351399   -0.708479
   11.W         0.091862    2.277076   -2.926721
   12.W         2.981230   -0.866952   -0.347822
   13.O        -0.097897    1.696288   -0.879616
   14.O        -0.588117   -0.334209    1.475854
   15.O         0.812888   -1.144868   -1.029655
   16.O        -2.126380   -0.680475   -1.248257
   17.O        -3.383370    0.373760    1.147396
   18.O         2.702584    1.002890   -0.543993
   19.O        -2.327533   -2.565370    0.920499
   20.O         1.159139    0.655558   -3.282231
   21.O         2.291656   -0.703765    1.434615
   22.O        -1.418178    1.139281   -3.390158
   23.O         0.247472   -3.091027    1.060254
   24.O        -2.969405    2.056732   -0.832592
   25.O        -1.040008   -3.382073   -1.224887
   26.O        -1.672837    2.351356    1.459895
   27.O        -0.550124   -1.339083   -3.591721
   28.O         1.393403    1.768021    1.598832
   29.O         1.663412    3.068123   -2.044386
   30.O        -2.261691   -1.049741    3.227623
   31.O         3.028950   -1.063509   -2.293384
   32.O        -4.405474   -1.536449   -0.571421
   33.O        -1.109138    3.601313   -2.187385
   34.O         2.605675   -2.800643   -0.267323
   35.O        -3.960340    0.290367   -2.684616
   36.O         0.516905   -1.576210    3.357018
   37.O        -0.431936    1.080353    3.560276
   38.O        -3.006189   -2.365009   -2.887883
   39.O         0.271410    3.911862    0.268713
   40.O         1.280226   -3.097310   -2.608450
   41.O        -2.335210    4.685452   -0.002757
   42.O         2.204044    0.488533    4.007318
   43.O         1.116718   -5.147781   -0.691582
   44.O        -2.899602   -0.652557   -5.027377
   45.O         3.009048    3.702549    0.264221
   46.O         1.978832   -1.551965   -4.855680
   47.O        -3.751861   -4.164613   -0.956403
   48.O        -3.134568    1.499887    3.739095
   49.O        -1.319040   -3.614361    3.366421
   50.O        -5.569482    0.947631   -0.564819
   51.O         0.352450    3.105420   -4.459238
   52.O         4.703629   -0.935599   -0.039650
   53.H         0.077844   -0.572376   -0.687481
 <Dec12-2023> <09:30:18>  >>>> CORORT
 <Dec12-2023> <09:30:19>  >>>> CLSMAT
 <Dec12-2023> <09:30:19>  >>>> ORTHON
 <Dec12-2023> <09:30:19>  >>>> GENPT
 <Dec12-2023> <09:30:19>  Block Length= 128
 <Dec12-2023> <09:30:20>  >>>> PTBAS
 <Dec12-2023> <09:30:41>  combining surface points...
 <Dec12-2023> <09:30:41>  combining surface points...
 <Dec12-2023> <09:30:41>  combining surface points...
 <Dec12-2023> <09:30:41>  >>>> CYCLE
 <Dec12-2023> <09:31:04>              |Error|         MaxErr       Wt(A-DIIS)
 <Dec12-2023> <09:31:04>      1      0.15171209      0.00672840
 <Dec12-2023> <09:31:23>      2      0.58856712      0.02428343    100.0
 <Dec12-2023> <09:31:43>      3      0.15411429      0.00566205    100.0
 <Dec12-2023> <09:32:02>      4      0.22116345      0.00821021    100.0
 <Dec12-2023> <09:32:21>      5      0.91437546      0.03669146    100.0
 <Dec12-2023> <09:32:40>      6      0.33236334      0.01134037    100.0
 <Dec12-2023> <09:32:59>      7      0.14888113      0.00850757      7.6
 <Dec12-2023> <09:33:18>      8      0.04774663      0.00323312      2.3
 <Dec12-2023> <09:33:37>      9      0.01542735      0.00088957      0.0
 <Dec12-2023> <09:33:56>     10      0.00730483      0.00043936      0.0
 <Dec12-2023> <09:34:15>     11      0.00337662      0.00011073      0.0
 <Dec12-2023> <09:34:34>     12      0.00085397      0.00003675      0.0
 <Dec12-2023> <09:34:52>     13      0.00034391      0.00001608      0.0
 <Dec12-2023> <09:35:11>     14      0.00026269      0.00001152      0.0
 <Dec12-2023> <09:35:30>     15      0.00009980      0.00000399      0.0
 <Dec12-2023> <09:35:48>     16      0.00003596      0.00000259      0.0
 <Dec12-2023> <09:36:07>     17      0.00003896      0.00000201      0.0
 <Dec12-2023> <09:36:26>     18      0.00002211      0.00000084      0.0
 <Dec12-2023> <09:36:44>     19      0.00000693      0.00000045      0.0
 <Dec12-2023> <09:36:55>  SCF converged
 <Dec12-2023> <09:37:03>     20      0.00000180      0.00000010      0.0
 <Dec12-2023> <09:37:14>  >>>> TOTEN
 <Dec12-2023> <09:37:22>  >>>> POPAN
 <Dec12-2023> <09:37:22>  >>>> DEBYE
 <Dec12-2023> <09:37:23>  >>>> ENGRAD
 <Dec12-2023> <09:38:31>  Geometry symmetry displacement    6 out of    8
  Coordinates in Geometry Cycle 2
    Atom         X           Y           Z   (Angstrom)
    1.W        -1.504833    3.154017   -0.274470
    2.W         1.083261    0.191211    2.680855
    3.W         0.823672   -3.422900   -0.742747
    4.W        -2.333941   -0.563699   -3.360662
    5.W         1.665642    2.630142   -0.120544
    6.W         1.330700   -1.239011   -3.259527
    7.W        -2.826513   -2.664626   -0.953893
    8.W        -2.081582    0.772380    2.528424
    9.W        -1.000989   -2.249586    2.298378
   10.W        -3.918948    0.351327   -0.708671
   11.W         0.092063    2.276840   -2.926590
   12.W         2.981073   -0.866763   -0.347829
   13.O        -0.097857    1.696298   -0.879528
   14.O        -0.588041   -0.334232    1.475828
   15.O         0.812836   -1.144850   -1.029783
   16.O        -2.126428   -0.680475   -1.248207
   17.O        -3.383295    0.373640    1.147491
   18.O         2.702538    1.002933   -0.544210
   19.O        -2.327459   -2.565479    0.920527
   20.O         1.158946    0.655596   -3.282399
   21.O         2.291629   -0.703994    1.434335
   22.O        -1.418399    1.139518   -3.389764
   23.O         0.247437   -3.091038    1.059969
   24.O        -2.969576    2.056844   -0.832069
   25.O        -1.040136   -3.382041   -1.225170
   26.O        -1.672427    2.351290    1.460029
   27.O        -0.550307   -1.338816   -3.591964
   28.O         1.393772    1.767843    1.598942
   29.O         1.663392    3.068213   -2.044233
   30.O        -2.261348   -1.050071    3.227656
   31.O         3.028776   -1.063408   -2.293740
   32.O        -4.405586   -1.536260   -0.571207
   33.O        -1.109175    3.601397   -2.187075
   34.O         2.605695   -2.800702   -0.267906
   35.O        -3.960531    0.290681   -2.684240
   36.O         0.517188   -1.576566    3.356807
   37.O        -0.431448    1.079985    3.560382
   38.O        -3.006468   -2.364748   -2.887844
   39.O         0.271444    3.911830    0.268955
   40.O         1.279867   -3.097215   -2.608796
   41.O        -2.335192    4.685535   -0.002347
   42.O         2.204646    0.487962    4.007214
   43.O         1.116635   -5.147744   -0.691801
   44.O        -2.900031   -0.652026   -5.027075
   45.O         3.009115    3.702539    0.264324
   46.O         1.978696   -1.551958   -4.855949
   47.O        -3.752040   -4.164319   -0.956402
   48.O        -3.133899    1.499481    3.739150
   49.O        -1.318727   -3.614867    3.366281
   50.O        -5.569765    0.947867   -0.564309
   51.O         0.352242    3.105616   -4.458949
   52.O         4.703531   -0.935548   -0.039945
   53.H         0.077823   -0.572356   -0.687545
 <Dec12-2023> <09:38:31>  >>>> CORORT
 <Dec12-2023> <09:38:32>  >>>> CLSMAT
 <Dec12-2023> <09:38:32>  >>>> ORTHON
 <Dec12-2023> <09:38:32>  >>>> GENPT
 <Dec12-2023> <09:38:32>  Block Length= 128
 <Dec12-2023> <09:38:33>  >>>> PTBAS
 <Dec12-2023> <09:38:53>  combining surface points...
 <Dec12-2023> <09:38:53>  combining surface points...
 <Dec12-2023> <09:38:54>  combining surface points...
 <Dec12-2023> <09:38:54>  >>>> CYCLE
 <Dec12-2023> <09:39:16>              |Error|         MaxErr       Wt(A-DIIS)
 <Dec12-2023> <09:39:17>      1      0.17623293      0.00973983
 <Dec12-2023> <09:39:36>      2      0.58853553      0.02428338    100.0
 <Dec12-2023> <09:39:56>      3      0.15412021      0.00566164    100.0
 <Dec12-2023> <09:40:15>      4      0.22087877      0.00819775    100.0
 <Dec12-2023> <09:40:34>      5      0.91557534      0.03673397    100.0
 <Dec12-2023> <09:40:53>      6      0.33255858      0.01135645    100.0
 <Dec12-2023> <09:41:12>      7      0.14766171      0.00843000      7.5
 <Dec12-2023> <09:41:31>      8      0.04773605      0.00323340      2.3
 <Dec12-2023> <09:41:50>      9      0.01541737      0.00088994      0.0
 <Dec12-2023> <09:42:09>     10      0.00729028      0.00043922      0.0
 <Dec12-2023> <09:42:27>     11      0.00337702      0.00011118      0.0
 <Dec12-2023> <09:42:46>     12      0.00085406      0.00003669      0.0
 <Dec12-2023> <09:43:05>     13      0.00034423      0.00001605      0.0
 <Dec12-2023> <09:43:24>     14      0.00026427      0.00001156      0.0
 <Dec12-2023> <09:43:43>     15      0.00010022      0.00000408      0.0
 <Dec12-2023> <09:44:01>     16      0.00003615      0.00000259      0.0
 <Dec12-2023> <09:44:20>     17      0.00003921      0.00000201      0.0
 <Dec12-2023> <09:44:39>     18      0.00002227      0.00000085      0.0
 <Dec12-2023> <09:44:57>     19      0.00000693      0.00000045      0.0
 <Dec12-2023> <09:45:08>  SCF converged
 <Dec12-2023> <09:45:16>     20      0.00000179      0.00000009      0.0
 <Dec12-2023> <09:45:27>  >>>> TOTEN
 <Dec12-2023> <09:45:35>  >>>> POPAN
 <Dec12-2023> <09:45:35>  >>>> DEBYE
 <Dec12-2023> <09:45:36>  >>>> ENGRAD
 <Dec12-2023> <09:46:44>  Old frequency:    -16.01892, new:     13.02051
 <Dec12-2023> <09:46:44>  Geometry symmetry displacement    7 out of    8
  Coordinates in Geometry Cycle 2
    Atom         X           Y           Z   (Angstrom)
    1.W        -1.504807    3.153617   -0.274320
    2.W         1.083217    0.191290    2.680681
    3.W         0.823815   -3.423051   -0.742816
    4.W        -2.334008   -0.563587   -3.360679
    5.W         1.665735    2.630286   -0.120639
    6.W         1.330557   -1.238906   -3.259442
    7.W        -2.826428   -2.664638   -0.953975
    8.W        -2.081748    0.772316    2.528859
    9.W        -1.000878   -2.249546    2.298137
   10.W        -3.918951    0.351250   -0.708556
   11.W         0.092036    2.277083   -2.926703
   12.W         2.981071   -0.866797   -0.347807
   13.O        -0.097860    1.696317   -0.879567
   14.O        -0.588088   -0.334200    1.475831
   15.O         0.812817   -1.144944   -1.029697
   16.O        -2.126424   -0.680455   -1.248213
   17.O        -3.383355    0.373967    1.147430
   18.O         2.702554    1.002781   -0.544142
   19.O        -2.327604   -2.565194    0.920534
   20.O         1.159069    0.655449   -3.282276
   21.O         2.291558   -0.704024    1.434490
   22.O        -1.418189    1.139432   -3.389989
   23.O         0.247298   -3.091147    1.060123
   24.O        -2.969455    2.056852   -0.832404
   25.O        -1.040181   -3.382165   -1.224952
   26.O        -1.672454    2.351383    1.459977
   27.O        -0.550310   -1.339014   -3.591803
   28.O         1.393750    1.767910    1.598844
   29.O         1.663596    3.068033   -2.044356
   30.O        -2.261585   -1.049758    3.227652
   31.O         3.028794   -1.063754   -2.293534
   32.O        -4.405636   -1.536164   -0.571272
   33.O        -1.108914    3.601372   -2.187380
   34.O         2.605573   -2.800838   -0.267540
   35.O        -3.960443    0.290699   -2.684349
   36.O         0.516970   -1.576357    3.356924
   37.O        -0.431685    1.080241    3.560288
   38.O        -3.006445   -2.364756   -2.887833
   39.O         0.271716    3.911864    0.268763
   40.O         1.279847   -3.097422   -2.608590
   41.O        -2.334831    4.685438   -0.002708
   42.O         2.204316    0.488216    4.007248
   43.O         1.116624   -5.147906   -0.691655
   44.O        -2.899904   -0.652152   -5.027141
   45.O         3.009442    3.702387    0.264202
   46.O         1.978660   -1.552093   -4.855785
   47.O        -3.752130   -4.164225   -0.956312
   48.O        -3.134227    1.499893    3.739125
   49.O        -1.319081   -3.614472    3.366371
   50.O        -5.569715    0.948013   -0.564503
   51.O         0.352636    3.105372   -4.459244
   52.O         4.703498   -0.935684   -0.039777
   53.H         0.077790   -0.572459   -0.687474
 <Dec12-2023> <09:46:44>  >>>> CORORT
 <Dec12-2023> <09:46:45>  >>>> CLSMAT
 <Dec12-2023> <09:46:45>  >>>> ORTHON
 <Dec12-2023> <09:46:45>  >>>> GENPT
 <Dec12-2023> <09:46:45>  Block Length= 128
 <Dec12-2023> <09:46:46>  >>>> PTBAS
 <Dec12-2023> <09:47:06>  combining surface points...
 <Dec12-2023> <09:47:06>  combining surface points...
 <Dec12-2023> <09:47:06>  combining surface points...
 <Dec12-2023> <09:47:06>  >>>> CYCLE
 <Dec12-2023> <09:47:30>              |Error|         MaxErr       Wt(A-DIIS)
 <Dec12-2023> <09:47:30>      1      0.15895236      0.00858124
 <Dec12-2023> <09:47:49>      2      0.58857549      0.02428220    100.0
 <Dec12-2023> <09:48:09>      3      0.15410617      0.00566078    100.0
 <Dec12-2023> <09:48:28>      4      0.22137939      0.00821742    100.0
 <Dec12-2023> <09:48:47>      5      0.91334461      0.03665022    100.0
 <Dec12-2023> <09:49:06>      6      0.33219814      0.01132491    100.0
 <Dec12-2023> <09:49:25>      7      0.14982861      0.00857011      7.6
 <Dec12-2023> <09:49:44>      8      0.04774691      0.00323243      2.3
 <Dec12-2023> <09:50:03>      9      0.01543319      0.00089051      0.0
 <Dec12-2023> <09:50:22>     10      0.00731435      0.00043946      0.0
 <Dec12-2023> <09:50:41>     11      0.00337641      0.00011081      0.0
 <Dec12-2023> <09:51:00>     12      0.00085395      0.00003677      0.0
 <Dec12-2023> <09:51:18>     13      0.00034368      0.00001612      0.0
 <Dec12-2023> <09:51:37>     14      0.00026121      0.00001148      0.0
 <Dec12-2023> <09:51:56>     15      0.00009947      0.00000398      0.0
 <Dec12-2023> <09:52:15>     16      0.00003581      0.00000259      0.0
 <Dec12-2023> <09:52:33>     17      0.00003875      0.00000201      0.0
 <Dec12-2023> <09:52:52>     18      0.00002197      0.00000084      0.0
 <Dec12-2023> <09:53:11>     19      0.00000694      0.00000045      0.0
 <Dec12-2023> <09:53:21>  SCF converged
 <Dec12-2023> <09:53:29>     20      0.00000181      0.00000010      0.0
 <Dec12-2023> <09:53:40>  >>>> TOTEN
 <Dec12-2023> <09:53:48>  >>>> POPAN
 <Dec12-2023> <09:53:48>  >>>> DEBYE
 <Dec12-2023> <09:53:49>  >>>> ENGRAD
 <Dec12-2023> <09:54:57>  Geometry symmetry displacement    8 out of    8
  Coordinates in Geometry Cycle 2
    Atom         X           Y           Z   (Angstrom)
    1.W        -1.504721    3.154282   -0.274331
    2.W         1.083262    0.191161    2.680772
    3.W         0.823548   -3.422809   -0.742761
    4.W        -2.334048   -0.563809   -3.360780
    5.W         1.665624    2.629871   -0.120661
    6.W         1.330694   -1.238887   -3.259487
    7.W        -2.826792   -2.664689   -0.953917
    8.W        -2.081601    0.772404    2.528673
    9.W        -1.001006   -2.249569    2.298282
   10.W        -3.918464    0.351476   -0.708594
   11.W         0.091889    2.276833   -2.926608
   12.W         2.981232   -0.866919   -0.347844
   13.O        -0.097895    1.696269   -0.879577
   14.O        -0.588070   -0.334241    1.475851
   15.O         0.812907   -1.144774   -1.029742
   16.O        -2.126383   -0.680495   -1.248252
   17.O        -3.383310    0.373433    1.147457
   18.O         2.702568    1.003042   -0.544061
   19.O        -2.327388   -2.565655    0.920492
   20.O         1.159016    0.655705   -3.282355
   21.O         2.291727   -0.703736    1.434459
   22.O        -1.418388    1.139367   -3.389933
   23.O         0.247611   -3.090918    1.060101
   24.O        -2.969526    2.056725   -0.832256
   25.O        -1.039963   -3.381949   -1.225105
   26.O        -1.672810    2.351263    1.459947
   27.O        -0.550121   -1.338885   -3.591881
   28.O         1.393426    1.767954    1.598930
   29.O         1.663208    3.068304   -2.044263
   30.O        -2.261454   -1.050054    3.227627
   31.O         3.028932   -1.063163   -2.293589
   32.O        -4.405424   -1.536545   -0.571355
   33.O        -1.109400    3.601338   -2.187080
   34.O         2.605797   -2.800507   -0.267689
   35.O        -3.960428    0.290349   -2.684508
   36.O         0.517124   -1.576419    3.356901
   37.O        -0.431699    1.080096    3.560370
   38.O        -3.006212   -2.365000   -2.887894
   39.O         0.271137    3.911827    0.268904
   40.O         1.280245   -3.097103   -2.608655
   41.O        -2.335571    4.685550   -0.002396
   42.O         2.204374    0.488279    4.007284
   43.O         1.116729   -5.147619   -0.691728
   44.O        -2.899729   -0.652431   -5.027310
   45.O         3.008722    3.702701    0.264343
   46.O         1.978867   -1.551830   -4.855844
   47.O        -3.751772   -4.164708   -0.956492
   48.O        -3.134240    1.499474    3.739120
   49.O        -1.318686   -3.614756    3.366331
   50.O        -5.569532    0.947485   -0.564625
   51.O         0.352056    3.105663   -4.458943
   52.O         4.703663   -0.935463   -0.039818
   53.H         0.077877   -0.572273   -0.687552
 <Dec12-2023> <09:54:57>  >>>> CORORT
 <Dec12-2023> <09:54:58>  >>>> CLSMAT
 <Dec12-2023> <09:54:58>  >>>> ORTHON
 <Dec12-2023> <09:54:58>  >>>> GENPT
 <Dec12-2023> <09:54:58>  Block Length= 128
 <Dec12-2023> <09:54:59>  >>>> PTBAS
 <Dec12-2023> <09:55:19>  combining surface points...
 <Dec12-2023> <09:55:19>  combining surface points...
 <Dec12-2023> <09:55:19>  combining surface points...
 <Dec12-2023> <09:55:20>  >>>> CYCLE
 <Dec12-2023> <09:55:43>              |Error|         MaxErr       Wt(A-DIIS)
 <Dec12-2023> <09:55:43>      1      0.17572289      0.01161937
 <Dec12-2023> <09:56:02>      2      0.58850854      0.02428688    100.0
 <Dec12-2023> <09:56:22>      3      0.15412877      0.00566461    100.0
 <Dec12-2023> <09:56:41>      4      0.22057295      0.00818821    100.0
 <Dec12-2023> <09:57:00>      5      0.91698241      0.03678798    100.0
 <Dec12-2023> <09:57:19>      6      0.33278519      0.01138173    100.0
 <Dec12-2023> <09:57:38>      7      0.14634165      0.00834475      7.4
 <Dec12-2023> <09:57:57>      8      0.04773222      0.00323445      2.3
 <Dec12-2023> <09:58:16>      9      0.01540856      0.00088808      0.0
 <Dec12-2023> <09:58:35>     10      0.00727650      0.00043922      0.0
 <Dec12-2023> <09:58:54>     11      0.00337723      0.00011109      0.0
 <Dec12-2023> <09:59:12>     12      0.00085419      0.00003667      0.0
 <Dec12-2023> <09:59:31>     13      0.00034467      0.00001599      0.0
 <Dec12-2023> <09:59:50>     14      0.00026622      0.00001160      0.0
 <Dec12-2023> <10:00:08>     15      0.00010063      0.00000407      0.0
 <Dec12-2023> <10:00:27>     16      0.00003634      0.00000260      0.0
 <Dec12-2023> <10:00:46>     17      0.00003946      0.00000198      0.0
 <Dec12-2023> <10:01:04>     18      0.00002244      0.00000085      0.0
 <Dec12-2023> <10:01:23>     19      0.00000693      0.00000045      0.0
 <Dec12-2023> <10:01:33>  SCF converged
 <Dec12-2023> <10:01:42>     20      0.00000178      0.00000009      0.0
 <Dec12-2023> <10:01:53>  >>>> TOTEN
 <Dec12-2023> <10:02:01>  >>>> POPAN
 <Dec12-2023> <10:02:01>  >>>> DEBYE
 <Dec12-2023> <10:02:01>  >>>> ENGRAD
 <Dec12-2023> <10:03:09>  Old frequency:    -12.97218, new:     13.72485
 <Dec12-2023> <10:03:09>  NOTE: Some frequencies have been re-calculated by numerical differentiation
 <Dec12-2023> <10:03:09>        Check the text output file for new values!
 <Dec12-2023> <10:03:09>  NORMAL TERMINATION
 <Dec12-2023> <10:03:11>  END
